 Entering Gaussian System, Link 0=/share/apps/mg09/g09
 Initial command:
 /share/apps//mg09/l1.exe "/state/partition1/gauss_tmp/Gau-8175.inp" -scrdir="/state/partition1/gauss_tmp/"
 Entering Link 1 = /share/apps//mg09/l1.exe PID=      8185.
  
 Copyright (c) 1988,1990,1992,1993,1995,1998,2003,2009,2013,
            Gaussian, Inc.  All Rights Reserved.
  
 This is part of the Gaussian(R) 09 program.  It is based on
 the Gaussian(R) 03 system (copyright 2003, Gaussian, Inc.),
 the Gaussian(R) 98 system (copyright 1998, Gaussian, Inc.),
 the Gaussian(R) 94 system (copyright 1995, Gaussian, Inc.),
 the Gaussian 92(TM) system (copyright 1992, Gaussian, Inc.),
 the Gaussian 90(TM) system (copyright 1990, Gaussian, Inc.),
 the Gaussian 88(TM) system (copyright 1988, Gaussian, Inc.),
 the Gaussian 86(TM) system (copyright 1986, Carnegie Mellon
 University), and the Gaussian 82(TM) system (copyright 1983,
 Carnegie Mellon University). Gaussian is a federally registered
 trademark of Gaussian, Inc.
  
 This software contains proprietary and confidential information,
 including trade secrets, belonging to Gaussian, Inc.
  
 This software is provided under written license and may be
 used, copied, transmitted, or stored only in accord with that
 written license.
  
 The following legend is applicable only to US Government
 contracts under FAR:
  
                    RESTRICTED RIGHTS LEGEND
  
 Use, reproduction and disclosure by the US Government is
 subject to restrictions as set forth in subparagraphs (a)
 and (c) of the Commercial Computer Software - Restricted
 Rights clause in FAR 52.227-19.
  
 Gaussian, Inc.
 340 Quinnipiac St., Bldg. 40, Wallingford CT 06492
  
  
 ---------------------------------------------------------------
 Warning -- This program may not be used in any manner that
 competes with the business of Gaussian, Inc. or will provide
 assistance to any competitor of Gaussian, Inc.  The licensee
 of this program is prohibited from giving any competitor of
 Gaussian, Inc. access to this program.  By using this program,
 the user acknowledges that Gaussian, Inc. is engaged in the
 business of creating and licensing software in the field of
 computational chemistry and represents and warrants to the
 licensee that it is not a competitor of Gaussian, Inc. and that
 it will not use this program in any manner prohibited above.
 ---------------------------------------------------------------
  

 Cite this work as:
 Gaussian 09, Revision D.01,
 M. J. Frisch, G. W. Trucks, H. B. Schlegel, G. E. Scuseria, 
 M. A. Robb, J. R. Cheeseman, G. Scalmani, V. Barone, B. Mennucci, 
 G. A. Petersson, H. Nakatsuji, M. Caricato, X. Li, H. P. Hratchian, 
 A. F. Izmaylov, J. Bloino, G. Zheng, J. L. Sonnenberg, M. Hada, 
 M. Ehara, K. Toyota, R. Fukuda, J. Hasegawa, M. Ishida, T. Nakajima, 
 Y. Honda, O. Kitao, H. Nakai, T. Vreven, J. A. Montgomery, Jr., 
 J. E. Peralta, F. Ogliaro, M. Bearpark, J. J. Heyd, E. Brothers, 
 K. N. Kudin, V. N. Staroverov, T. Keith, R. Kobayashi, J. Normand, 
 K. Raghavachari, A. Rendell, J. C. Burant, S. S. Iyengar, J. Tomasi, 
 M. Cossi, N. Rega, J. M. Millam, M. Klene, J. E. Knox, J. B. Cross, 
 V. Bakken, C. Adamo, J. Jaramillo, R. Gomperts, R. E. Stratmann, 
 O. Yazyev, A. J. Austin, R. Cammi, C. Pomelli, J. W. Ochterski, 
 R. L. Martin, K. Morokuma, V. G. Zakrzewski, G. A. Voth, 
 P. Salvador, J. J. Dannenberg, S. Dapprich, A. D. Daniels, 
 O. Farkas, J. B. Foresman, J. V. Ortiz, J. Cioslowski, 
 and D. J. Fox, Gaussian, Inc., Wallingford CT, 2013.
 
 ******************************************
 Gaussian 09:  ES64L-G09RevD.01 24-Apr-2013
                 6-Mar-2018 
 ******************************************
 %NProcShared=4
 Will use up to    4 processors via shared memory.
 %LindaWorkers=compute-0-6
 %chk=Isomer_00.chk
 %NProc=4
 Will use up to    4 processors via shared memory.
 %mem=4GB
 SetLPE:  input flags=" -vv -opt "Tsnet.Node.lindarsharg: ssh" "
 SetLPE:    new flags=" -vv -opt "Tsnet.Node.lindarsharg: ssh"  -nodelist 'compute-0-6.local'"
 Will use up to    1 processors via Linda.
 ----------------------------------------------------------------------
 #p PBE1PBE/Def2TZVP scf=(maxcycle=768) opt=(cartesian,maxcycle=512) fr
 eq
 ----------------------------------------------------------------------
 1/6=512,10=7,14=-1,18=10,26=3,38=1/1,3;
 2/12=2,17=6,18=5,29=2,40=1/2;
 3/5=44,7=101,11=2,16=1,25=1,30=1,71=1,74=-13/1,2,3;
 4//1;
 5/5=2,7=768,38=5/2;
 6/7=2,8=2,9=2,10=2,28=1/1;
 7/7=1,29=1/1,2,3,16;
 1/6=512,10=7,14=-1,18=10,26=3/3(2);
 2/29=1/2;
 99/12=1/99;
 2/29=1/2;
 3/5=44,7=101,11=2,16=1,25=1,30=1,71=1,74=-13/1,2,3;
 4/5=5,16=3,69=1/1;
 5/5=2,7=768,38=5/2;
 7/7=1/1,2,3,16;
 1/6=512,14=-1,18=10,26=3/3(-5);
 2/29=1/2;
 6/7=2,8=2,9=2,10=2,19=2,28=1/1;
 99/9=1,12=1/99;
 Leave Link    1 at Tue Mar  6 11:56:28 2018, MaxMem=   536870912 cpu:         0.3
 (Enter /share/apps//mg09/l101.exe)
 ---------------------
 01Final_coords.xyz_00
 ---------------------
 Symbolic Z-matrix:
 Charge =  0 Multiplicity = 1
 83                    1.30547  -2.11787   0.60148 
 32                   -1.24502   1.45245   1.80459 
 50                   -0.80728  -1.77454  -1.56895 
 83                    1.31271   2.11429   0.60071 
 32                   -1.24842  -1.44761   1.80652 
 50                   -0.80334   1.7766   -1.56866 
 83                   -2.79344   0.00317  -0.14394 
 32                    0.95     -0.00038   2.58182 
 83                    1.74057  -0.00254  -1.55575 
 
 NAtoms=      9 NQM=        9 NQMF=       0 NMMI=      0 NMMIF=      0
                NMic=       0 NMicF=      0.
                    Isotopes and Nuclear Properties:
 (Nuclear quadrupole moments (NQMom) in fm**2, nuclear magnetic moments (NMagM)
  in nuclear magnetons)

  Atom         1           2           3           4           5           6           7           8           9
 IAtWgt=         209          74         118         209          74         118         209          74         209
 AtmWgt= 208.9804000  73.9211788 117.9018000 208.9804000  73.9211788 117.9018000 208.9804000  73.9211788 208.9804000
 NucSpn=           9           0           0           9           0           0           9           0           9
 AtZEff=   0.0000000   0.0000000   0.0000000   0.0000000   0.0000000   0.0000000   0.0000000   0.0000000   0.0000000
 NQMom=  -51.6000000   0.0000000   0.0000000 -51.6000000   0.0000000   0.0000000 -51.6000000   0.0000000 -51.6000000
 NMagM=    4.1106000   0.0000000   0.0000000   4.1106000   0.0000000   0.0000000   4.1106000   0.0000000   4.1106000
 AtZNuc=  83.0000000  32.0000000  50.0000000  83.0000000  32.0000000  50.0000000  83.0000000  32.0000000  83.0000000
 Leave Link  101 at Tue Mar  6 11:56:30 2018, MaxMem=   536870912 cpu:         0.3
 (Enter /share/apps//mg09/l103.exe)

 GradGradGradGradGradGradGradGradGradGradGradGradGradGradGradGradGradGrad
 Berny optimization.
 Initialization pass.
 No Z-matrix variables, so optimization will use Cartesian coordinates.
 Trust Radius=3.00D-01 FncErr=1.00D-07 GrdErr=1.00D-06
 Number of steps in this run=    100 maximum allowed number of steps=    100.
 GradGradGradGradGradGradGradGradGradGradGradGradGradGradGradGradGradGrad

 Leave Link  103 at Tue Mar  6 11:56:35 2018, MaxMem=   536870912 cpu:         0.1
 (Enter /share/apps//mg09/l202.exe)
 ---------------------------------------------------------------------------------------------------
                            Z-MATRIX (ANGSTROMS AND DEGREES)
   CD    Cent   Atom    N1       Length/X        N2       Alpha/Y        N3        Beta/Z          J
 ---------------------------------------------------------------------------------------------------
      1      1  Bi       0   1.305471         -2.117872          0.601475
      2      2  Ge       0  -1.245019          1.452453          1.804587
      3      3  Sn       0  -0.807276         -1.774544         -1.568951
      4      4  Bi       0   1.312710          2.114285          0.600707
      5      5  Ge       0  -1.248417         -1.447605          1.806521
      6      6  Sn       0  -0.803336          1.776603         -1.568663
      7      7  Bi       0  -2.793440          0.003165         -0.143939
      8      8  Ge       0   0.949999         -0.000375          2.581819
      9      9  Bi       0   1.740568         -0.002543         -1.555748
 ---------------------------------------------------------------------------------------------------
                         Z-Matrix orientation:                         
 ---------------------------------------------------------------------
 Center     Atomic      Atomic             Coordinates (Angstroms)
 Number     Number       Type             X           Y           Z
 ---------------------------------------------------------------------
      1         83           0        1.305471   -2.117872    0.601475
      2         32           0       -1.245019    1.452453    1.804587
      3         50           0       -0.807276   -1.774544   -1.568951
      4         83           0        1.312710    2.114285    0.600707
      5         32           0       -1.248417   -1.447605    1.806521
      6         50           0       -0.803336    1.776603   -1.568663
      7         83           0       -2.793440    0.003165   -0.143939
      8         32           0        0.949999   -0.000375    2.581819
      9         83           0        1.740568   -0.002543   -1.555748
 ---------------------------------------------------------------------
                    Distance matrix (angstroms):
                    1          2          3          4          5
     1  Bi   0.000000
     2  Ge   4.549692   0.000000
     3  Sn   3.048331   4.688911   0.000000
     4  Bi   4.232163   2.903330   4.932013   0.000000
     5  Ge   2.902368   2.900061   3.419840   4.549771   0.000000
     6  Sn   4.931886   3.417451   3.551149   3.049237   4.688868
     7  Bi   4.674988   2.880069   3.022541   4.676729   2.880299
     8  Ge   2.920944   2.744613   4.844025   2.920300   2.743828
     9  Bi   3.052464   4.724679   3.103493   3.051937   4.725155
                    6          7          8          9
     6  Sn   0.000000
     7  Bi   3.022488   0.000000
     8  Ge   4.843381   4.630670   0.000000
     9  Bi   3.104348   4.748733   4.212418   0.000000
 Stoichiometry    Bi4Ge3Sn2
 Framework group  C1[X(Bi4Ge3Sn2)]
 Deg. of freedom    21
 Full point group                 C1      NOp   1
 Largest Abelian subgroup         C1      NOp   1
 Largest concise Abelian subgroup C1      NOp   1
                         Standard orientation:                         
 ---------------------------------------------------------------------
 Center     Atomic      Atomic             Coordinates (Angstroms)
 Number     Number       Type             X           Y           Z
 ---------------------------------------------------------------------
      1         83           0       -1.305468    2.117873    0.601475
      2         32           0        1.245017   -1.452454    1.804587
      3         50           0        0.807278    1.774543   -1.568951
      4         83           0       -1.312712   -2.114283    0.600707
      5         32           0        1.248419    1.447604    1.806521
      6         50           0        0.803334   -1.776604   -1.568663
      7         83           0        2.793440   -0.003168   -0.143939
      8         32           0       -0.949999    0.000376    2.581819
      9         83           0       -1.740568    0.002545   -1.555748
 ---------------------------------------------------------------------
 Rotational constants (GHZ):      0.0982886      0.0895243      0.0795248
 Leave Link  202 at Tue Mar  6 11:56:35 2018, MaxMem=   536870912 cpu:         0.0
 (Enter /share/apps//mg09/l301.exe)
 Standard basis: def2TZVP (5D, 7F)
 Ernie: Thresh=  0.10000D-02 Tol=  0.10000D-05 Strict=F.
 There are   519 symmetry adapted cartesian basis functions of A   symmetry.
 There are   444 symmetry adapted basis functions of A   symmetry.
   444 basis functions,   963 primitive gaussians,   519 cartesian basis functions
   116 alpha electrons      116 beta electrons
       nuclear repulsion energy      3564.9117008040 Hartrees.
 IExCor= 1009 DFT=T Ex+Corr=PBE1PBE ExCW=0 ScaHFX=  0.250000
 ScaDFX=  0.750000  0.750000  1.000000  1.000000 ScalE2=  1.000000  1.000000
 IRadAn=      0 IRanWt=     -1 IRanGd=            0 ICorTp=0 IEmpDi=  4
 NAtoms=    9 NActive=    9 NUniq=    9 SFac= 1.00D+00 NAtFMM=   60 NAOKFM=F Big=F
 Integral buffers will be    131072 words long.
 Raffenetti 2 integral format.
 Two-electron integral symmetry is turned on.
 Leave Link  301 at Tue Mar  6 11:56:39 2018, MaxMem=   536870912 cpu:         0.2
 (Enter /share/apps//mg09/l302.exe)
 NPDir=0 NMtPBC=     1 NCelOv=     1 NCel=       1 NClECP=     1 NCelD=      1
         NCelK=      1 NCelE2=     1 NClLst=     1 CellRange=     0.0.
 One-electron integrals computed using PRISM.
   1 Symmetry operations used in ECPInt.
 ECPInt:  NShTT=   10440 NPrTT=   41973 LenC2=    9687 LenP2D=   27403.
 LDataN:  DoStor=T MaxTD1= 8 Len=  415
 NBasis=   444 RedAO= T EigKep=  1.50D-03  NBF=   444
 NBsUse=   444 1.00D-06 EigRej= -1.00D+00 NBFU=   444
 Precomputing XC quadrature grid using
 IXCGrd= 4 IRadAn=           0 IRanWt=          -1 IRanGd=           0 AccXCQ= 0.00D+00.
 Defaulting to unpruned grid for atomic number  83.
 Defaulting to unpruned grid for atomic number  83.
 Defaulting to unpruned grid for atomic number  83.
 Generated NRdTot=       0 NPtTot=           0 NUsed=           0 NTot=          32
 NSgBfM=   499   499   499   499   500 MxSgAt=     9 MxSgA2=     9.
 Leave Link  302 at Tue Mar  6 11:56:50 2018, MaxMem=   536870912 cpu:        28.5
 (Enter /share/apps//mg09/l303.exe)
 DipDrv:  MaxL=1.
 Leave Link  303 at Tue Mar  6 11:57:00 2018, MaxMem=   536870912 cpu:         0.2
 (Enter /share/apps//mg09/l401.exe)
 ExpMin= 4.62D-02 ExpMax= 4.66D+05 ExpMxC= 4.50D+03 IAcc=2 IRadAn=         4 AccDes= 0.00D+00
 Harris functional with IExCor= 1009 and IRadAn=       4 diagonalized for initial guess.
 HarFok:  IExCor= 1009 AccDes= 0.00D+00 IRadAn=         4 IDoV= 1 UseB2=F ITyADJ=14
 ICtDFT=  3500011 ScaDFX=  1.000000  1.000000  1.000000  1.000000
 Defaulting to unpruned grid for atomic number  83.
 Defaulting to unpruned grid for atomic number  83.
 Defaulting to unpruned grid for atomic number  83.
 Defaulting to unpruned grid for atomic number  83.
 FoFCou: FMM=F IPFlag=           0 FMFlag=      100000 FMFlg1=           0
         NFxFlg=           0 DoJE=T BraDBF=F KetDBF=T FulRan=T
         wScrn=  0.000000 ICntrl=     500 IOpCl=  0 I1Cent=   200000004 NGrid=           0
         NMat0=    1 NMatS0=      1 NMatT0=    0 NMatD0=    1 NMtDS0=    0 NMtDT0=    0
 Petite list used in FoFCou.
 Harris En= -7518.61278658135    
 JPrj=0 DoOrth=F DoCkMO=F.
 Leave Link  401 at Tue Mar  6 11:57:13 2018, MaxMem=   536870912 cpu:        11.8
 (Enter /share/apps//mg09/l502.exe)
 Closed shell SCF:
 Using DIIS extrapolation, IDIIS=  1040.
 Integral symmetry usage will be decided dynamically.
 IVT=     1410107 IEndB=     1410107 NGot=   536870912 MDV=   536322046
 LenX=   536322046 LenY=   536052166
 Requested convergence on RMS density matrix=1.00D-08 within 768 cycles.
 Requested convergence on MAX density matrix=1.00D-06.
 Requested convergence on             energy=1.00D-06.
 No special actions if energy rises.
 Fock matrices will be formed incrementally for  20 cycles.

 Cycle   1  Pass 1  IDiag  1:
 FoFJK:  IHMeth= 1 ICntrl=       0 DoSepK=F KAlg= 0 I1Cent=   0 FoldK=F
 IRaf= 880000000 NMat=   1 IRICut=       1 DoRegI=T DoRafI=F ISym2E= 0.
 FoFCou: FMM=F IPFlag=           0 FMFlag=      100000 FMFlg1=           0
         NFxFlg=           0 DoJE=F BraDBF=F KetDBF=F FulRan=T
         wScrn=  0.000000 ICntrl=       0 IOpCl=  0 I1Cent=           0 NGrid=           0
         NMat0=    1 NMatS0=      1 NMatT0=    0 NMatD0=    1 NMtDS0=    0 NMtDT0=    0
 Symmetry not used in FoFCou.
 Defaulting to unpruned grid for atomic number  83.
 Defaulting to unpruned grid for atomic number  83.
 Defaulting to unpruned grid for atomic number  83.
 Defaulting to unpruned grid for atomic number  83.
 E= -7517.26151126950    
 DIIS: error= 3.50D-02 at cycle   1 NSaved=   1.
 NSaved= 1 IEnMin= 1 EnMin= -7517.26151126950     IErMin= 1 ErrMin= 3.50D-02
 ErrMax= 3.50D-02  0.00D+00 EMaxC= 1.00D-01 BMatC= 1.46D+00 BMatP= 1.46D+00
 IDIUse=3 WtCom= 6.50D-01 WtEn= 3.50D-01
 Coeff-Com:  0.100D+01
 Coeff-En:   0.100D+01
 Coeff:      0.100D+01
 Gap=     0.168 Goal=   None    Shift=    0.000
 GapD=    0.168 DampG=1.000 DampE=0.500 DampFc=0.5000 IDamp=-1.
 Damping current iteration by 5.00D-01
 RMSDP=4.89D-03 MaxDP=2.26D-01              OVMax= 5.64D-01

 Cycle   2  Pass 1  IDiag  1:
 RMSU=  2.44D-03    CP:  1.01D+00
 E= -7517.28579729053     Delta-E=       -0.024286021031 Rises=F Damp=T
 DIIS: error= 1.17D-02 at cycle   2 NSaved=   2.
 NSaved= 2 IEnMin= 2 EnMin= -7517.28579729053     IErMin= 2 ErrMin= 1.17D-02
 ErrMax= 1.17D-02  0.00D+00 EMaxC= 1.00D-01 BMatC= 2.08D-01 BMatP= 1.46D+00
 IDIUse=3 WtCom= 8.83D-01 WtEn= 1.17D-01
 Coeff-Com:  0.884D-01 0.912D+00
 Coeff-En:   0.482D+00 0.518D+00
 Coeff:      0.134D+00 0.866D+00
 Gap=     0.176 Goal=   None    Shift=    0.000
 RMSDP=3.04D-03 MaxDP=1.16D-01 DE=-2.43D-02 OVMax= 5.45D-01

 Cycle   3  Pass 1  IDiag  1:
 RMSU=  2.46D-03    CP:  1.01D+00  2.71D-01
 E= -7516.61197005315     Delta-E=        0.673827237377 Rises=F Damp=F
 DIIS: error= 3.78D-02 at cycle   3 NSaved=   3.
 NSaved= 3 IEnMin= 2 EnMin= -7517.28579729053     IErMin= 2 ErrMin= 1.17D-02
 ErrMax= 3.78D-02  0.00D+00 EMaxC= 1.00D-01 BMatC= 9.95D-01 BMatP= 2.08D-01
 IDIUse=2 WtCom= 0.00D+00 WtEn= 1.00D+00
 EnCoef did     9 forward-backward iterations
 Coeff-En:   0.222D+00 0.577D+00 0.201D+00
 Coeff:      0.222D+00 0.577D+00 0.201D+00
 Gap=     0.178 Goal=   None    Shift=    0.000
 RMSDP=2.80D-03 MaxDP=9.93D-02 DE= 6.74D-01 OVMax= 3.53D-01

 Cycle   4  Pass 1  IDiag  1:
 RMSU=  9.97D-04    CP:  1.01D+00  9.13D-01  1.50D-01
 E= -7517.76239557941     Delta-E=       -1.150425526259 Rises=F Damp=F
 DIIS: error= 7.67D-03 at cycle   4 NSaved=   4.
 NSaved= 4 IEnMin= 4 EnMin= -7517.76239557941     IErMin= 4 ErrMin= 7.67D-03
 ErrMax= 7.67D-03  0.00D+00 EMaxC= 1.00D-01 BMatC= 6.86D-02 BMatP= 2.08D-01
 IDIUse=3 WtCom= 9.23D-01 WtEn= 7.67D-02
 Coeff-Com:  0.134D+00-0.417D-01 0.952D-01 0.812D+00
 Coeff-En:   0.000D+00 0.000D+00 0.720D-01 0.928D+00
 Coeff:      0.124D+00-0.385D-01 0.934D-01 0.821D+00
 Gap=     0.134 Goal=   None    Shift=    0.000
 RMSDP=9.25D-04 MaxDP=5.42D-02 DE=-1.15D+00 OVMax= 8.19D-02

 Cycle   5  Pass 1  IDiag  1:
 RMSU=  5.71D-04    CP:  1.00D+00  6.73D-01  2.60D-01  7.34D-01
 E= -7517.80172061362     Delta-E=       -0.039325034213 Rises=F Damp=F
 DIIS: error= 4.24D-03 at cycle   5 NSaved=   5.
 NSaved= 5 IEnMin= 5 EnMin= -7517.80172061362     IErMin= 5 ErrMin= 4.24D-03
 ErrMax= 4.24D-03  0.00D+00 EMaxC= 1.00D-01 BMatC= 2.26D-02 BMatP= 6.86D-02
 IDIUse=3 WtCom= 9.58D-01 WtEn= 4.24D-02
 Coeff-Com:  0.979D-01-0.172D+00-0.772D-03 0.606D+00 0.469D+00
 Coeff-En:   0.000D+00 0.000D+00 0.000D+00 0.290D+00 0.710D+00
 Coeff:      0.937D-01-0.164D+00-0.739D-03 0.592D+00 0.479D+00
 Gap=     0.126 Goal=   None    Shift=    0.000
 RMSDP=4.08D-04 MaxDP=2.32D-02 DE=-3.93D-02 OVMax= 4.08D-02

 Cycle   6  Pass 1  IDiag  1:
 RMSU=  1.35D-04    CP:  1.00D+00  6.93D-01  1.77D-01  8.76D-01  5.05D-01
 E= -7517.82296780691     Delta-E=       -0.021247193286 Rises=F Damp=F
 DIIS: error= 1.13D-03 at cycle   6 NSaved=   6.
 NSaved= 6 IEnMin= 6 EnMin= -7517.82296780691     IErMin= 6 ErrMin= 1.13D-03
 ErrMax= 1.13D-03  0.00D+00 EMaxC= 1.00D-01 BMatC= 9.06D-04 BMatP= 2.26D-02
 IDIUse=3 WtCom= 9.89D-01 WtEn= 1.13D-02
 Coeff-Com:  0.383D-01-0.767D-01 0.331D-02 0.238D+00 0.244D+00 0.553D+00
 Coeff-En:   0.000D+00 0.000D+00 0.000D+00 0.000D+00 0.274D-01 0.973D+00
 Coeff:      0.378D-01-0.758D-01 0.327D-02 0.236D+00 0.241D+00 0.558D+00
 Gap=     0.126 Goal=   None    Shift=    0.000
 RMSDP=1.07D-04 MaxDP=4.60D-03 DE=-2.12D-02 OVMax= 1.21D-02

 Cycle   7  Pass 1  IDiag  1:
 RMSU=  7.70D-05    CP:  1.00D+00  6.88D-01  1.98D-01  8.76D-01  5.32D-01
                    CP:  6.46D-01
 E= -7517.82372027754     Delta-E=       -0.000752470634 Rises=F Damp=F
 DIIS: error= 6.56D-04 at cycle   7 NSaved=   7.
 NSaved= 7 IEnMin= 7 EnMin= -7517.82372027754     IErMin= 7 ErrMin= 6.56D-04
 ErrMax= 6.56D-04  0.00D+00 EMaxC= 1.00D-01 BMatC= 3.07D-04 BMatP= 9.06D-04
 IDIUse=3 WtCom= 9.93D-01 WtEn= 6.56D-03
 Coeff-Com:  0.209D-01-0.436D-01 0.323D-02 0.127D+00 0.141D+00 0.420D+00
 Coeff-Com:  0.331D+00
 Coeff-En:   0.000D+00 0.000D+00 0.000D+00 0.000D+00 0.000D+00 0.251D+00
 Coeff-En:   0.749D+00
 Coeff:      0.207D-01-0.433D-01 0.321D-02 0.126D+00 0.141D+00 0.419D+00
 Coeff:      0.334D+00
 Gap=     0.126 Goal=   None    Shift=    0.000
 RMSDP=6.04D-05 MaxDP=2.16D-03 DE=-7.52D-04 OVMax= 7.39D-03

 Cycle   8  Pass 1  IDiag  1:
 RMSU=  3.37D-05    CP:  1.00D+00  6.87D-01  2.02D-01  8.77D-01  5.28D-01
                    CP:  7.90D-01  4.16D-01
 E= -7517.82408728084     Delta-E=       -0.000367003291 Rises=F Damp=F
 DIIS: error= 2.04D-04 at cycle   8 NSaved=   8.
 NSaved= 8 IEnMin= 8 EnMin= -7517.82408728084     IErMin= 8 ErrMin= 2.04D-04
 ErrMax= 2.04D-04  0.00D+00 EMaxC= 1.00D-01 BMatC= 3.89D-05 BMatP= 3.07D-04
 IDIUse=3 WtCom= 9.98D-01 WtEn= 2.04D-03
 Coeff-Com:  0.599D-02-0.130D-01 0.152D-02 0.342D-01 0.400D-01 0.144D+00
 Coeff-Com:  0.257D+00 0.530D+00
 Coeff-En:   0.000D+00 0.000D+00 0.000D+00 0.000D+00 0.000D+00 0.000D+00
 Coeff-En:   0.169D+00 0.831D+00
 Coeff:      0.598D-02-0.130D-01 0.152D-02 0.341D-01 0.400D-01 0.143D+00
 Coeff:      0.257D+00 0.531D+00
 Gap=     0.126 Goal=   None    Shift=    0.000
 RMSDP=2.29D-05 MaxDP=1.17D-03 DE=-3.67D-04 OVMax= 2.56D-03

 Cycle   9  Pass 1  IDiag  1:
 RMSU=  1.46D-05    CP:  1.00D+00  6.87D-01  2.01D-01  8.76D-01  5.29D-01
                    CP:  7.67D-01  5.23D-01  5.58D-01
 E= -7517.82413205354     Delta-E=       -0.000044772702 Rises=F Damp=F
 DIIS: error= 7.53D-05 at cycle   9 NSaved=   9.
 NSaved= 9 IEnMin= 9 EnMin= -7517.82413205354     IErMin= 9 ErrMin= 7.53D-05
 ErrMax= 7.53D-05  0.00D+00 EMaxC= 1.00D-01 BMatC= 7.95D-06 BMatP= 3.89D-05
 IDIUse=1 WtCom= 1.00D+00 WtEn= 0.00D+00
 Coeff-Com: -0.765D-04-0.192D-03 0.399D-03-0.263D-02-0.728D-04 0.176D-01
 Coeff-Com:  0.118D+00 0.380D+00 0.488D+00
 Coeff:     -0.765D-04-0.192D-03 0.399D-03-0.263D-02-0.728D-04 0.176D-01
 Coeff:      0.118D+00 0.380D+00 0.488D+00
 Gap=     0.126 Goal=   None    Shift=    0.000
 RMSDP=9.19D-06 MaxDP=7.94D-04 DE=-4.48D-05 OVMax= 9.41D-04

 Cycle  10  Pass 1  IDiag  1:
 RMSU=  3.13D-06    CP:  1.00D+00  6.86D-01  2.01D-01  8.76D-01  5.30D-01
                    CP:  7.71D-01  5.48D-01  7.05D-01  5.53D-01
 E= -7517.82414121477     Delta-E=       -0.000009161229 Rises=F Damp=F
 DIIS: error= 1.56D-05 at cycle  10 NSaved=  10.
 NSaved=10 IEnMin=10 EnMin= -7517.82414121477     IErMin=10 ErrMin= 1.56D-05
 ErrMax= 1.56D-05  0.00D+00 EMaxC= 1.00D-01 BMatC= 3.04D-07 BMatP= 7.95D-06
 IDIUse=1 WtCom= 1.00D+00 WtEn= 0.00D+00
 Coeff-Com: -0.428D-03 0.762D-03 0.496D-04-0.343D-02-0.240D-02-0.340D-03
 Coeff-Com:  0.401D-01 0.149D+00 0.244D+00 0.573D+00
 Coeff:     -0.428D-03 0.762D-03 0.496D-04-0.343D-02-0.240D-02-0.340D-03
 Coeff:      0.401D-01 0.149D+00 0.244D+00 0.573D+00
 Gap=     0.126 Goal=   None    Shift=    0.000
 RMSDP=1.57D-06 MaxDP=7.08D-05 DE=-9.16D-06 OVMax= 1.80D-04

 Cycle  11  Pass 1  IDiag  1:
 RMSU=  1.08D-06    CP:  1.00D+00  6.86D-01  2.01D-01  8.76D-01  5.30D-01
                    CP:  7.73D-01  5.45D-01  7.11D-01  5.96D-01  7.54D-01
 E= -7517.82414147235     Delta-E=       -0.000000257582 Rises=F Damp=F
 DIIS: error= 3.20D-06 at cycle  11 NSaved=  11.
 NSaved=11 IEnMin=11 EnMin= -7517.82414147235     IErMin=11 ErrMin= 3.20D-06
 ErrMax= 3.20D-06  0.00D+00 EMaxC= 1.00D-01 BMatC= 2.00D-08 BMatP= 3.04D-07
 IDIUse=1 WtCom= 1.00D+00 WtEn= 0.00D+00
 Coeff-Com: -0.138D-03 0.247D-03-0.120D-04-0.108D-02-0.885D-03-0.364D-03
 Coeff-Com:  0.100D-01 0.370D-01 0.762D-01 0.259D+00 0.620D+00
 Coeff:     -0.138D-03 0.247D-03-0.120D-04-0.108D-02-0.885D-03-0.364D-03
 Coeff:      0.100D-01 0.370D-01 0.762D-01 0.259D+00 0.620D+00
 Gap=     0.126 Goal=   None    Shift=    0.000
 RMSDP=5.21D-07 MaxDP=3.17D-05 DE=-2.58D-07 OVMax= 6.15D-05

 Cycle  12  Pass 1  IDiag  1:
 RMSU=  3.74D-07    CP:  1.00D+00  6.86D-01  2.01D-01  8.76D-01  5.30D-01
                    CP:  7.73D-01  5.47D-01  7.08D-01  5.97D-01  8.19D-01
                    CP:  8.73D-01
 E= -7517.82414148938     Delta-E=       -0.000000017029 Rises=F Damp=F
 DIIS: error= 1.96D-06 at cycle  12 NSaved=  12.
 NSaved=12 IEnMin=12 EnMin= -7517.82414148938     IErMin=12 ErrMin= 1.96D-06
 ErrMax= 1.96D-06  0.00D+00 EMaxC= 1.00D-01 BMatC= 4.75D-09 BMatP= 2.00D-08
 IDIUse=1 WtCom= 1.00D+00 WtEn= 0.00D+00
 Coeff-Com: -0.461D-04 0.882D-04-0.322D-05-0.325D-03-0.383D-03-0.375D-04
 Coeff-Com: -0.521D-04 0.391D-03 0.100D-01 0.740D-01 0.348D+00 0.569D+00
 Coeff:     -0.461D-04 0.882D-04-0.322D-05-0.325D-03-0.383D-03-0.375D-04
 Coeff:     -0.521D-04 0.391D-03 0.100D-01 0.740D-01 0.348D+00 0.569D+00
 Gap=     0.126 Goal=   None    Shift=    0.000
 RMSDP=2.55D-07 MaxDP=1.55D-05 DE=-1.70D-08 OVMax= 3.89D-05

 Cycle  13  Pass 1  IDiag  1:
 RMSU=  1.59D-07    CP:  1.00D+00  6.86D-01  2.01D-01  8.76D-01  5.30D-01
                    CP:  7.73D-01  5.47D-01  7.09D-01  6.03D-01  8.21D-01
                    CP:  9.63D-01  7.14D-01
 E= -7517.82414149351     Delta-E=       -0.000000004129 Rises=F Damp=F
 DIIS: error= 9.31D-07 at cycle  13 NSaved=  13.
 NSaved=13 IEnMin=13 EnMin= -7517.82414149351     IErMin=13 ErrMin= 9.31D-07
 ErrMax= 9.31D-07  0.00D+00 EMaxC= 1.00D-01 BMatC= 1.09D-09 BMatP= 4.75D-09
 IDIUse=1 WtCom= 1.00D+00 WtEn= 0.00D+00
 Coeff-Com: -0.136D-04 0.274D-04-0.163D-05-0.946D-04-0.180D-03 0.203D-04
 Coeff-Com: -0.129D-02-0.424D-02-0.300D-02 0.145D-01 0.143D+00 0.383D+00
 Coeff-Com:  0.468D+00
 Coeff:     -0.136D-04 0.274D-04-0.163D-05-0.946D-04-0.180D-03 0.203D-04
 Coeff:     -0.129D-02-0.424D-02-0.300D-02 0.145D-01 0.143D+00 0.383D+00
 Coeff:      0.468D+00
 Gap=     0.126 Goal=   None    Shift=    0.000
 RMSDP=1.27D-07 MaxDP=6.04D-06 DE=-4.13D-09 OVMax= 1.44D-05

 Cycle  14  Pass 1  IDiag  1:
 RMSU=  8.48D-08    CP:  1.00D+00  6.86D-01  2.01D-01  8.76D-01  5.30D-01
                    CP:  7.73D-01  5.47D-01  7.10D-01  6.03D-01  8.29D-01
                    CP:  9.63D-01  8.36D-01  5.56D-01
 E= -7517.82414149423     Delta-E=       -0.000000000724 Rises=F Damp=F
 DIIS: error= 7.28D-07 at cycle  14 NSaved=  14.
 NSaved=14 IEnMin=14 EnMin= -7517.82414149423     IErMin=14 ErrMin= 7.28D-07
 ErrMax= 7.28D-07  0.00D+00 EMaxC= 1.00D-01 BMatC= 3.88D-10 BMatP= 1.09D-09
 IDIUse=1 WtCom= 1.00D+00 WtEn= 0.00D+00
 Coeff-Com: -0.708D-06 0.242D-05-0.166D-05-0.852D-05-0.720D-04 0.262D-04
 Coeff-Com: -0.102D-02-0.359D-02-0.442D-02-0.378D-02 0.454D-01 0.200D+00
 Coeff-Com:  0.384D+00 0.383D+00
 Coeff:     -0.708D-06 0.242D-05-0.166D-05-0.852D-05-0.720D-04 0.262D-04
 Coeff:     -0.102D-02-0.359D-02-0.442D-02-0.378D-02 0.454D-01 0.200D+00
 Coeff:      0.384D+00 0.383D+00
 Gap=     0.126 Goal=   None    Shift=    0.000
 RMSDP=6.52D-08 MaxDP=2.85D-06 DE=-7.24D-10 OVMax= 7.47D-06

 Cycle  15  Pass 1  IDiag  1:
 RMSU=  3.32D-08    CP:  1.00D+00  6.86D-01  2.01D-01  8.76D-01  5.30D-01
                    CP:  7.73D-01  5.47D-01  7.10D-01  6.03D-01  8.32D-01
                    CP:  9.67D-01  8.42D-01  7.29D-01  4.65D-01
 E= -7517.82414149479     Delta-E=       -0.000000000558 Rises=F Damp=F
 DIIS: error= 1.60D-07 at cycle  15 NSaved=  15.
 NSaved=15 IEnMin=15 EnMin= -7517.82414149479     IErMin=15 ErrMin= 1.60D-07
 ErrMax= 1.60D-07  0.00D+00 EMaxC= 1.00D-01 BMatC= 3.42D-11 BMatP= 3.88D-10
 IDIUse=1 WtCom= 1.00D+00 WtEn= 0.00D+00
 Coeff-Com:  0.357D-05-0.659D-05-0.111D-05 0.202D-04 0.432D-05 0.947D-05
 Coeff-Com: -0.214D-03-0.103D-02-0.154D-02-0.586D-02-0.973D-02 0.175D-01
 Coeff-Com:  0.109D+00 0.255D+00 0.637D+00
 Coeff:      0.357D-05-0.659D-05-0.111D-05 0.202D-04 0.432D-05 0.947D-05
 Coeff:     -0.214D-03-0.103D-02-0.154D-02-0.586D-02-0.973D-02 0.175D-01
 Coeff:      0.109D+00 0.255D+00 0.637D+00
 Gap=     0.126 Goal=   None    Shift=    0.000
 RMSDP=2.06D-08 MaxDP=8.94D-07 DE=-5.58D-10 OVMax= 2.79D-06

 Cycle  16  Pass 1  IDiag  1:
 RMSU=  8.08D-09    CP:  1.00D+00  6.86D-01  2.01D-01  8.76D-01  5.30D-01
                    CP:  7.73D-01  5.47D-01  7.10D-01  6.03D-01  8.32D-01
                    CP:  9.75D-01  8.44D-01  7.32D-01  6.10D-01  8.30D-01
 E= -7517.82414149466     Delta-E=        0.000000000127 Rises=F Damp=F
 DIIS: error= 4.51D-08 at cycle  16 NSaved=  16.
 NSaved=16 IEnMin=15 EnMin= -7517.82414149479     IErMin=16 ErrMin= 4.51D-08
 ErrMax= 4.51D-08  0.00D+00 EMaxC= 1.00D-01 BMatC= 1.82D-12 BMatP= 3.42D-11
 IDIUse=1 WtCom= 1.00D+00 WtEn= 0.00D+00
 Coeff-Com:  0.123D-05-0.252D-05 0.241D-08 0.697D-05 0.440D-05-0.949D-05
 Coeff-Com: -0.472D-04-0.243D-03-0.352D-03-0.198D-02-0.653D-02-0.456D-02
 Coeff-Com:  0.177D-01 0.736D-01 0.248D+00 0.674D+00
 Coeff:      0.123D-05-0.252D-05 0.241D-08 0.697D-05 0.440D-05-0.949D-05
 Coeff:     -0.472D-04-0.243D-03-0.352D-03-0.198D-02-0.653D-02-0.456D-02
 Coeff:      0.177D-01 0.736D-01 0.248D+00 0.674D+00
 Gap=     0.126 Goal=   None    Shift=    0.000
 RMSDP=4.68D-09 MaxDP=2.23D-07 DE= 1.27D-10 OVMax= 6.89D-07

 SCF Done:  E(RPBE1PBE) =  -7517.82414149     A.U. after   16 cycles
            NFock= 16  Conv=0.47D-08     -V/T= 2.1285
 KE= 6.661938805123D+03 PE=-2.472113540533D+04 EE= 6.976460757913D+03
 Leave Link  502 at Tue Mar  6 12:11:33 2018, MaxMem=   536870912 cpu:      3377.8
 (Enter /share/apps//mg09/l601.exe)
 Copying SCF densities to generalized density rwf, IOpCl= 0 IROHF=0.

 **********************************************************************

            Population analysis using the SCF density.

 **********************************************************************

 Orbital symmetries:
       Occupied  (A) (A) (A) (A) (A) (A) (A) (A) (A) (A) (A) (A)
                 (A) (A) (A) (A) (A) (A) (A) (A) (A) (A) (A) (A)
                 (A) (A) (A) (A) (A) (A) (A) (A) (A) (A) (A) (A)
                 (A) (A) (A) (A) (A) (A) (A) (A) (A) (A) (A) (A)
                 (A) (A) (A) (A) (A) (A) (A) (A) (A) (A) (A) (A)
                 (A) (A) (A) (A) (A) (A) (A) (A) (A) (A) (A) (A)
                 (A) (A) (A) (A) (A) (A) (A) (A) (A) (A) (A) (A)
                 (A) (A) (A) (A) (A) (A) (A) (A) (A) (A) (A) (A)
                 (A) (A) (A) (A) (A) (A) (A) (A) (A) (A) (A) (A)
                 (A) (A) (A) (A) (A) (A) (A) (A)
       Virtual   (A) (A) (A) (A) (A) (A) (A) (A) (A) (A) (A) (A)
                 (A) (A) (A) (A) (A) (A) (A) (A) (A) (A) (A) (A)
                 (A) (A) (A) (A) (A) (A) (A) (A) (A) (A) (A) (A)
                 (A) (A) (A) (A) (A) (A) (A) (A) (A) (A) (A) (A)
                 (A) (A) (A) (A) (A) (A) (A) (A) (A) (A) (A) (A)
                 (A) (A) (A) (A) (A) (A) (A) (A) (A) (A) (A) (A)
                 (A) (A) (A) (A) (A) (A) (A) (A) (A) (A) (A) (A)
                 (A) (A) (A) (A) (A) (A) (A) (A) (A) (A) (A) (A)
                 (A) (A) (A) (A) (A) (A) (A) (A) (A) (A) (A) (A)
                 (A) (A) (A) (A) (A) (A) (A) (A) (A) (A) (A) (A)
                 (A) (A) (A) (A) (A) (A) (A) (A) (A) (A) (A) (A)
                 (A) (A) (A) (A) (A) (A) (A) (A) (A) (A) (A) (A)
                 (A) (A) (A) (A) (A) (A) (A) (A) (A) (A) (A) (A)
                 (A) (A) (A) (A) (A) (A) (A) (A) (A) (A) (A) (A)
                 (A) (A) (A) (A) (A) (A) (A) (A) (A) (A) (A) (A)
                 (A) (A) (A) (A) (A) (A) (A) (A) (A) (A) (A) (A)
                 (A) (A) (A) (A) (A) (A) (A) (A) (A) (A) (A) (A)
                 (A) (A) (A) (A) (A) (A) (A) (A) (A) (A) (A) (A)
                 (A) (A) (A) (A) (A) (A) (A) (A) (A) (A) (A) (A)
                 (A) (A) (A) (A) (A) (A) (A) (A) (A) (A) (A) (A)
                 (A) (A) (A) (A) (A) (A) (A) (A) (A) (A) (A) (A)
                 (A) (A) (A) (A) (A) (A) (A) (A) (A) (A) (A) (A)
                 (A) (A) (A) (A) (A) (A) (A) (A) (A) (A) (A) (A)
                 (A) (A) (A) (A) (A) (A) (A) (A) (A) (A) (A) (A)
                 (A) (A) (A) (A) (A) (A) (A) (A) (A) (A) (A) (A)
                 (A) (A) (A) (A) (A) (A) (A) (A) (A) (A) (A) (A)
                 (A) (A) (A) (A) (A) (A) (A) (A) (A) (A) (A) (A)
                 (A) (A) (A) (A)
 The electronic state is 1-A.
 Alpha  occ. eigenvalues -- -399.09925-399.09924-399.09075 -49.91484 -49.91482
 Alpha  occ. eigenvalues --  -49.90662 -44.39571 -44.39570 -44.39542 -44.39541
 Alpha  occ. eigenvalues --  -44.39507 -44.39506 -44.38738 -44.38723 -44.38688
 Alpha  occ. eigenvalues --   -6.27989  -6.27987  -6.27172  -6.01801  -6.01236
 Alpha  occ. eigenvalues --   -6.01232  -6.01229  -5.14230  -5.14228  -4.43439
 Alpha  occ. eigenvalues --   -4.43438  -4.43364  -4.43363  -4.43225  -4.43224
 Alpha  occ. eigenvalues --   -4.42608  -4.42544  -4.42429  -3.74060  -3.73906
 Alpha  occ. eigenvalues --   -3.73835  -3.73565  -3.73561  -3.73451  -3.73417
 Alpha  occ. eigenvalues --   -3.73309  -3.73304  -3.73241  -3.73238  -3.73225
 Alpha  occ. eigenvalues --   -3.47442  -3.47440  -3.47335  -3.47333  -3.47255
 Alpha  occ. eigenvalues --   -3.47254  -1.22922  -1.22908  -1.22895  -1.22865
 Alpha  occ. eigenvalues --   -1.22841  -1.22768  -1.22724  -1.22721  -1.22703
 Alpha  occ. eigenvalues --   -1.22613  -1.22065  -1.22046  -1.21941  -1.21888
 Alpha  occ. eigenvalues --   -1.21863  -1.08142  -1.07783  -1.07711  -1.07667
 Alpha  occ. eigenvalues --   -1.07488  -1.07189  -1.07124  -1.07122  -1.07095
 Alpha  occ. eigenvalues --   -1.07056  -1.07027  -1.07020  -1.07015  -1.06954
 Alpha  occ. eigenvalues --   -1.06841  -1.06833  -1.06826  -1.06794  -1.06762
 Alpha  occ. eigenvalues --   -1.06737  -1.03631  -1.03615  -1.03564  -1.03543
 Alpha  occ. eigenvalues --   -1.03536  -1.03473  -1.03436  -1.03407  -1.03382
 Alpha  occ. eigenvalues --   -1.03369  -0.66020  -0.61523  -0.60379  -0.57672
 Alpha  occ. eigenvalues --   -0.50224  -0.44706  -0.44352  -0.42585  -0.42438
 Alpha  occ. eigenvalues --   -0.28701  -0.27199  -0.26335  -0.25791  -0.24821
 Alpha  occ. eigenvalues --   -0.23954  -0.23414  -0.22902  -0.22168  -0.21302
 Alpha  occ. eigenvalues --   -0.20647
 Alpha virt. eigenvalues --   -0.08042  -0.07642  -0.06727  -0.06307  -0.05398
 Alpha virt. eigenvalues --   -0.05251  -0.05227  -0.04709  -0.03941  -0.03569
 Alpha virt. eigenvalues --   -0.03404  -0.02688  -0.01747   0.04021   0.05118
 Alpha virt. eigenvalues --    0.05456   0.06205   0.08173   0.08186   0.09078
 Alpha virt. eigenvalues --    0.09113   0.09242   0.09549   0.10719   0.11085
 Alpha virt. eigenvalues --    0.11268   0.11474   0.11572   0.12493   0.13340
 Alpha virt. eigenvalues --    0.13551   0.16213   0.16676   0.16863   0.17016
 Alpha virt. eigenvalues --    0.17757   0.17833   0.19651   0.19677   0.20500
 Alpha virt. eigenvalues --    0.20771   0.22141   0.22409   0.22930   0.23570
 Alpha virt. eigenvalues --    0.24536   0.25670   0.26129   0.27134   0.28069
 Alpha virt. eigenvalues --    0.28797   0.29556   0.30739   0.30758   0.31321
 Alpha virt. eigenvalues --    0.31643   0.32023   0.32867   0.33713   0.34328
 Alpha virt. eigenvalues --    0.34469   0.35049   0.36554   0.37051   0.37786
 Alpha virt. eigenvalues --    0.38321   0.38954   0.39331   0.41021   0.41718
 Alpha virt. eigenvalues --    0.42563   0.43398   0.43477   0.44465   0.44527
 Alpha virt. eigenvalues --    0.44607   0.46216   0.47670   0.47749   0.48440
 Alpha virt. eigenvalues --    0.48565   0.49657   0.50118   0.50401   0.50789
 Alpha virt. eigenvalues --    0.52655   0.54213   0.55467   0.55693   0.56734
 Alpha virt. eigenvalues --    0.57339   0.58216   0.58578   0.59200   0.59538
 Alpha virt. eigenvalues --    0.59683   0.60380   0.61753   0.61773   0.61960
 Alpha virt. eigenvalues --    0.64443   0.64564   0.65493   0.66039   0.66371
 Alpha virt. eigenvalues --    0.67064   0.67334   0.67898   0.68661   0.69254
 Alpha virt. eigenvalues --    0.70124   0.71086   0.71880   0.72156   0.73216
 Alpha virt. eigenvalues --    0.74725   0.75544   0.75814   0.78114   0.78526
 Alpha virt. eigenvalues --    0.79341   0.79466   0.80440   0.81138   0.82130
 Alpha virt. eigenvalues --    0.83226   0.83577   0.84322   0.84444   0.85655
 Alpha virt. eigenvalues --    0.86477   0.87469   0.88319   0.88480   0.89210
 Alpha virt. eigenvalues --    0.90191   0.90374   0.92331   0.92371   0.93487
 Alpha virt. eigenvalues --    0.94280   0.95596   0.95890   0.96843   0.97676
 Alpha virt. eigenvalues --    0.97723   0.98614   0.98863   0.99877   1.00860
 Alpha virt. eigenvalues --    1.01053   1.03919   1.04158   1.04576   1.05663
 Alpha virt. eigenvalues --    1.07838   1.08904   1.09352   1.10303   1.11374
 Alpha virt. eigenvalues --    1.12837   1.13808   1.14848   1.17131   1.18689
 Alpha virt. eigenvalues --    1.18908   1.19202   1.19647   1.19781   1.20120
 Alpha virt. eigenvalues --    1.20421   1.20618   1.21881   1.22147   1.22363
 Alpha virt. eigenvalues --    1.23300   1.23644   1.23948   1.23964   1.24753
 Alpha virt. eigenvalues --    1.25624   1.25781   1.26248   1.27530   1.27751
 Alpha virt. eigenvalues --    1.28969   1.29090   1.29425   1.29591   1.30665
 Alpha virt. eigenvalues --    1.31360   1.31630   1.32267   1.33077   1.34532
 Alpha virt. eigenvalues --    1.34938   1.36956   1.37193   1.37747   1.38148
 Alpha virt. eigenvalues --    1.39150   1.40147   1.42040   1.42632   1.43133
 Alpha virt. eigenvalues --    1.43756   1.44565   1.46335   1.47128   1.47833
 Alpha virt. eigenvalues --    1.49492   1.49917   1.50748   1.51019   1.53397
 Alpha virt. eigenvalues --    1.53639   1.55913   1.56243   1.57857   1.61531
 Alpha virt. eigenvalues --    1.63415   1.65072   1.67669   2.04445   2.05545
 Alpha virt. eigenvalues --    2.09768   2.12325   2.13687   2.15318   2.15631
 Alpha virt. eigenvalues --    2.17038   2.17968   2.19125   2.20195   2.20739
 Alpha virt. eigenvalues --    2.21224   2.21310   2.24120   2.24397   2.25967
 Alpha virt. eigenvalues --    2.26332   2.26452   2.29395   2.29829   2.32101
 Alpha virt. eigenvalues --    2.32396   2.35542   2.36153   2.36296   2.37955
 Alpha virt. eigenvalues --    2.38345   2.41271   2.41787   2.42925   2.44580
 Alpha virt. eigenvalues --    2.45784   2.51070   2.53142   2.55217   2.57622
 Alpha virt. eigenvalues --    2.60027   2.60095   2.63789   2.64039   2.65878
 Alpha virt. eigenvalues --    2.67179   2.67729   2.71182   2.71443   2.73366
 Alpha virt. eigenvalues --    2.74900   2.75970   2.80506   2.80749   2.84630
 Alpha virt. eigenvalues --    2.86071   2.88173   2.89232   2.89758   3.02499
 Alpha virt. eigenvalues --    3.19538   3.27638   3.30272   3.36326   3.38813
 Alpha virt. eigenvalues --    3.39639   3.92313   3.98681   3.99304   4.00931
 Alpha virt. eigenvalues --    4.01645   4.06921   4.07833   4.13125   4.17649
 Alpha virt. eigenvalues --    5.18044   5.33102   5.40514  35.37209  35.40602
 Alpha virt. eigenvalues --   35.41997  35.44602  35.45232  35.46361  35.50480
 Alpha virt. eigenvalues --   35.52042  35.52634  35.52807  35.56450  35.63733
 Alpha virt. eigenvalues --   35.86345  35.99189  36.01040  36.02975  36.17583
 Alpha virt. eigenvalues --   36.22250  36.87930  36.96904  36.98068  37.00255
 Alpha virt. eigenvalues --   37.05669  37.17101 113.56034 113.59108 120.21980
 Alpha virt. eigenvalues --  120.24798 120.24928 120.25287
          Condensed to atoms (all electrons):
               1          2          3          4          5          6
     1  Bi  22.358366  -0.024580   0.157093  -0.022127   0.160549  -0.017705
     2  Ge  -0.024580  31.500022  -0.014986   0.160352   0.102197   0.052295
     3  Sn   0.157093  -0.014986  21.383760  -0.017713   0.052036   0.058972
     4  Bi  -0.022127   0.160352  -0.017713  22.358161  -0.024588   0.156972
     5  Ge   0.160549   0.102197   0.052036  -0.024588  31.499708  -0.014984
     6  Sn  -0.017705   0.052295   0.058972   0.156972  -0.014984  21.383750
     7  Bi  -0.020371   0.166204   0.176856  -0.020334   0.166216   0.176816
     8  Ge   0.180887   0.134662  -0.014336   0.181069   0.134876  -0.014336
     9  Bi   0.181316  -0.017989   0.148313   0.181435  -0.017985   0.148158
               7          8          9
     1  Bi  -0.020371   0.180887   0.181316
     2  Ge   0.166204   0.134662  -0.017989
     3  Sn   0.176856  -0.014336   0.148313
     4  Bi  -0.020334   0.181069   0.181435
     5  Ge   0.166216   0.134876  -0.017985
     6  Sn   0.176816  -0.014336   0.148158
     7  Bi  22.396419  -0.022236  -0.017271
     8  Ge  -0.022236  31.538879  -0.012502
     9  Bi  -0.017271  -0.012502  22.414471
 Mulliken charges:
               1
     1  Bi   0.046572
     2  Ge  -0.058178
     3  Sn   0.070005
     4  Bi   0.046772
     5  Ge  -0.058026
     6  Sn   0.070063
     7  Bi  -0.002299
     8  Ge  -0.106963
     9  Bi  -0.007945
 Sum of Mulliken charges =   0.00000
 Mulliken charges with hydrogens summed into heavy atoms:
               1
     1  Bi   0.046572
     2  Ge  -0.058178
     3  Sn   0.070005
     4  Bi   0.046772
     5  Ge  -0.058026
     6  Sn   0.070063
     7  Bi  -0.002299
     8  Ge  -0.106963
     9  Bi  -0.007945
 Electronic spatial extent (au):  <R**2>=           6082.8175
 Charge=              0.0000 electrons
 Dipole moment (field-independent basis, Debye):
    X=             -0.2786    Y=             -0.0005    Z=             -1.8099  Tot=              1.8312
 Quadrupole moment (field-independent basis, Debye-Ang):
   XX=           -215.2491   YY=           -217.3242   ZZ=           -221.7164
   XY=              0.0043   XZ=             -0.6174   YZ=              0.0005
 Traceless Quadrupole moment (field-independent basis, Debye-Ang):
   XX=              2.8475   YY=              0.7724   ZZ=             -3.6198
   XY=              0.0043   XZ=             -0.6174   YZ=              0.0005
 Octapole moment (field-independent basis, Debye-Ang**2):
  XXX=            -58.0815  YYY=              0.1672  ZZZ=            -62.4974  XYY=            -28.4479
  XXY=              0.0057  XXZ=            -24.3836  XZZ=            -21.7105  YZZ=              0.0390
  YYZ=            -16.4039  XYZ=              0.0159
 Hexadecapole moment (field-independent basis, Debye-Ang**3):
 XXXX=          -3419.1252 YYYY=          -3296.7576 ZZZZ=          -3075.3420 XXXY=              0.0144
 XXXZ=             13.3957 YYYX=             -0.1209 YYYZ=              0.1189 ZZZX=             22.7806
 ZZZY=              0.0268 XXYY=          -1112.4668 XXZZ=          -1076.0293 YYZZ=          -1051.1445
 XXYZ=             -0.0530 YYXZ=            -13.3032 ZZXY=             -0.0319
 N-N= 3.564911700804D+03 E-N=-2.472113544663D+04  KE= 6.661938805123D+03
 No NMR shielding tensors so no spin-rotation constants.
 Leave Link  601 at Tue Mar  6 12:11:36 2018, MaxMem=   536870912 cpu:         1.6
 (Enter /share/apps//mg09/l701.exe)
 Compute integral first derivatives.
 ... and contract with generalized density number  0.
   1 Symmetry operations used in ECPInt.
 ECPInt:  NShTT=   10440 NPrTT=   41973 LenC2=    9687 LenP2D=   27403.
 LDataN:  DoStor=T MaxTD1= 9 Len=  602
 Leave Link  701 at Tue Mar  6 12:11:55 2018, MaxMem=   536870912 cpu:        73.5
 (Enter /share/apps//mg09/l702.exe)
 L702 exits ... SP integral derivatives will be done elsewhere.
 Leave Link  702 at Tue Mar  6 12:11:55 2018, MaxMem=   536870912 cpu:         0.1
 (Enter /share/apps//mg09/l703.exe)
 Compute integral first derivatives, UseDBF=F ICtDFT=           0.
 Integral derivatives from FoFJK, PRISM(SPDF).
 Calling FoFJK, ICntrl=      2127 FMM=F ISym2X=0 I1Cent= 0 IOpClX= 0 NMat=1 NMatS=1 NMatT=0.
 FoFJK:  IHMeth= 1 ICntrl=    2127 DoSepK=F KAlg= 0 I1Cent=   0 FoldK=F
 IRaf=         0 NMat=   1 IRICut=       1 DoRegI=T DoRafI=F ISym2E= 0.
 FoFCou: FMM=F IPFlag=           0 FMFlag=      100000 FMFlg1=         800
         NFxFlg=           0 DoJE=F BraDBF=F KetDBF=F FulRan=T
         wScrn=  0.000000 ICntrl=    2127 IOpCl=  0 I1Cent=           0 NGrid=           0
         NMat0=    1 NMatS0=      1 NMatT0=    0 NMatD0=    1 NMtDS0=    0 NMtDT0=    0
 Symmetry not used in FoFCou.
 Defaulting to unpruned grid for atomic number  83.
 Defaulting to unpruned grid for atomic number  83.
 Defaulting to unpruned grid for atomic number  83.
 Defaulting to unpruned grid for atomic number  83.
 Leave Link  703 at Tue Mar  6 12:16:20 2018, MaxMem=   536870912 cpu:      1043.1
 (Enter /share/apps//mg09/l716.exe)
 Dipole        =-1.09609028D-01-1.80392959D-04-7.12060998D-01
 ***** Axes restored to original set *****
 -------------------------------------------------------------------
 Center     Atomic                   Forces (Hartrees/Bohr)
 Number     Number              X              Y              Z
 -------------------------------------------------------------------
      1       83          -0.006653802    0.006867512    0.000283320
      2       32           0.008543827   -0.012053113   -0.006201078
      3       50           0.002616042    0.007863223    0.007802656
      4       83          -0.006789012   -0.006836008    0.000276757
      5       32           0.008524704    0.012044776   -0.006224070
      6       50           0.002659286   -0.007879750    0.007824960
      7       83           0.009574908   -0.000001825    0.003298719
      8       32          -0.012296026   -0.000004949   -0.011145032
      9       83          -0.006179926    0.000000133    0.004083768
 -------------------------------------------------------------------
 Cartesian Forces:  Max     0.012296026 RMS     0.007176116
 Force constants in Cartesian coordinates: 
                1             2             3             4             5 
      1  0.142461D+00
      2 -0.399163D-01  0.147066D+00
      3 -0.174417D-02  0.270699D-02  0.127548D+00
      4  0.263568D-02  0.750321D-02 -0.299368D-03  0.197994D+00
      5  0.451672D-02 -0.166633D-02  0.249294D-02 -0.148533D-01  0.183623D+00
      6  0.494470D-02 -0.630028D-02  0.458293D-02 -0.138432D-01  0.410721D-01
      7 -0.383768D-01 -0.452527D-02 -0.215723D-01  0.518994D-02 -0.196981D-02
      8  0.181418D-01 -0.229899D-01  0.883041D-02  0.252041D-02 -0.118295D-02
      9 -0.166464D-01 -0.157254D-01 -0.356761D-01  0.388860D-02 -0.850451D-02
     10  0.650412D-03  0.145414D-03 -0.141459D-02 -0.672614D-01 -0.261065D-01
     11 -0.175335D-03 -0.795776D-02  0.329535D-03  0.565260D-02 -0.276817D-01
     12 -0.141562D-02 -0.318630D-03  0.770817D-02  0.285743D-01  0.610564D-02
     13 -0.639889D-01 -0.552007D-02  0.205882D-01 -0.260283D-01  0.131974D-01
     14  0.261240D-01 -0.253603D-01 -0.465891D-02 -0.121364D-01 -0.551062D-01
     15  0.164241D-01  0.116634D-01 -0.299258D-01  0.707678D-02 -0.160431D-01
     16  0.321507D-02  0.363913D-02 -0.293072D-03 -0.143674D-01  0.450848D-02
     17  0.389847D-02 -0.155304D-02 -0.624927D-03  0.100343D-01 -0.218244D-01
     18 -0.469327D-02  0.723898D-02  0.194177D-02 -0.448050D-02  0.163384D-01
     19 -0.414702D-02  0.562240D-02 -0.266416D-02 -0.456481D-01  0.293280D-02
     20  0.500895D-03  0.107447D-03  0.598719D-03 -0.259715D-01 -0.403706D-01
     21 -0.185353D-02  0.110693D-02  0.872547D-02 -0.322314D-01 -0.206079D-01
     22 -0.206762D-01  0.193271D-01  0.104035D-01 -0.528082D-01  0.118658D-01
     23 -0.273602D-02 -0.488393D-01 -0.329885D-01  0.276477D-01 -0.393262D-01
     24 -0.140610D-01 -0.108946D-01 -0.480477D-01  0.566437D-02 -0.152073D-01
     25 -0.217729D-01  0.137244D-01 -0.300398D-02  0.293880D-03  0.590841D-02
     26 -0.103542D-01 -0.388069D-01  0.233138D-01 -0.396961D-03  0.353520D-02
     27  0.190452D-01  0.105226D-01 -0.368564D-01  0.565035D-02 -0.564622D-02
                6             7             8             9            10 
      6  0.171589D+00
      7 -0.181564D-02  0.120226D+00
      8 -0.121062D-02  0.528471D-02  0.117714D+00
      9 -0.180195D-02  0.145647D-01  0.300810D-01  0.104584D+00
     10  0.130499D-01  0.319970D-02 -0.391916D-02 -0.471539D-02  0.147685D+00
     11 -0.127898D-01 -0.373646D-02 -0.153824D-02 -0.724490D-02  0.407855D-01
     12 -0.351780D-01 -0.243649D-03  0.704861D-03  0.193458D-02 -0.227023D-02
     13  0.700723D-02  0.361799D-02 -0.203387D-02  0.123443D-02  0.261567D-02
     14  0.864642D-02 -0.136719D-02  0.150554D-02 -0.310219D-02 -0.449335D-02
     15 -0.213680D-01  0.307908D-02  0.615813D-03 -0.104601D-01  0.497028D-02
     16  0.121302D-01 -0.901266D-02 -0.618329D-02 -0.625828D-02 -0.403942D-01
     17 -0.140683D-01  0.539199D-02 -0.312918D-01  0.164715D-01 -0.186355D-01
     18 -0.329432D-01 -0.616926D-02 -0.103387D-01 -0.156331D-01 -0.127340D-01
     19 -0.872835D-03 -0.416505D-01 -0.137108D-02 -0.338678D-02 -0.394997D-02
     20 -0.279506D-01  0.275209D-01 -0.333558D-01 -0.155286D-01 -0.679571D-03
     21 -0.505631D-01  0.175578D-01 -0.130079D-01 -0.275639D-01 -0.185209D-02
     22 -0.251712D-01  0.238461D-02 -0.485807D-02 -0.315873D-02 -0.207395D-01
     23  0.107274D-01 -0.902325D-03  0.254942D-02  0.121950D-02  0.260904D-02
     24 -0.336433D-01  0.131627D-02 -0.365619D-02 -0.196238D-02 -0.140568D-01
     25  0.457088D-02 -0.455787D-01 -0.758143D-02  0.144779D-01 -0.218054D-01
     26  0.187381D-02 -0.256965D-01 -0.314101D-01  0.233364D-02  0.102942D-01
     27 -0.674194D-03 -0.671693D-02 -0.120187D-01 -0.134215D-01  0.190230D-01
               11            12            13            14            15 
     11  0.150233D+00
     12 -0.327493D-02  0.138147D+00
     13 -0.760555D-02 -0.364507D-03  0.171199D+00
     14 -0.165211D-02 -0.257308D-02  0.769499D-02  0.155269D+00
     15  0.627744D-02  0.456167D-02 -0.157649D-02 -0.286123D-01  0.128216D+00
     16  0.558091D-02 -0.289276D-01  0.526242D-02  0.276126D-02 -0.192947D-02
     17 -0.251665D-01 -0.981955D-02 -0.352477D-02 -0.117490D-02  0.850464D-02
     18  0.174774D-01 -0.409893D-01  0.379322D-02  0.249479D-02 -0.533132D-03
     19 -0.704959D-02 -0.277107D-02 -0.435428D-01 -0.243969D-02 -0.475904D-02
     20  0.147782D-02 -0.485056D-03  0.255473D-01 -0.379177D-01  0.305911D-01
     21 -0.116285D-02  0.874434D-02 -0.271814D-01  0.155241D-01 -0.441209D-01
     22 -0.195810D-01  0.104860D-01 -0.497772D-01 -0.107534D-01 -0.278411D-01
     23 -0.488282D-01  0.329767D-01 -0.275431D-01 -0.383707D-01 -0.110900D-01
     24  0.111845D-01 -0.480711D-01 -0.350817D-02  0.105707D-01 -0.253244D-01
     25 -0.138710D-01 -0.306773D-02  0.642214D-03 -0.539018D-02  0.455584D-02
     26 -0.388860D-01 -0.233159D-01 -0.212293D-03  0.280711D-02 -0.190701D-02
     27 -0.107964D-01 -0.368571D-01  0.745610D-05  0.171047D-02 -0.104542D-02
               16            17            18            19            20 
     16  0.139946D+00
     17 -0.894086D-02  0.146680D+00
     18  0.184502D-01 -0.440177D-01  0.143625D+00
     19 -0.441887D-01  0.114996D-02 -0.636443D-02  0.191227D+00
     20 -0.283000D-01 -0.361543D-01  0.134018D-01  0.126372D-02  0.128017D+00
     21  0.234231D-01  0.188082D-01 -0.319292D-01  0.236324D-01 -0.652208D-03
     22  0.465318D-02  0.373488D-02 -0.299120D-02 -0.264738D-02  0.570904D-04
     23  0.783958D-03  0.301744D-02 -0.117156D-02 -0.621382D-04  0.103609D-01
     24 -0.498289D-02  0.763327D-02 -0.240036D-02 -0.895785D-02  0.347084D-04
     25 -0.451138D-01  0.689156D-02  0.151892D-01 -0.545267D-02  0.612220D-04
     26  0.261505D-01 -0.325329D-01 -0.142327D-02 -0.463934D-04  0.783525D-02
     27 -0.116122D-01  0.171130D-01 -0.211381D-01  0.614379D-02 -0.977260D-05
               21            22            23            24            25 
     21  0.133533D+00
     22 -0.812593D-03  0.139515D+00
     23 -0.367568D-05  0.226456D-03  0.151530D+00
     24  0.843797D-03  0.373039D-01  0.347850D-03  0.166373D+00
     25 -0.682252D-03  0.958016D-04 -0.235813D-04  0.128228D-02  0.138692D+00
     26 -0.463544D-05 -0.188126D-04  0.790634D-02 -0.129587D-04  0.280599D-03
     27  0.233068D-02  0.178146D-02 -0.175450D-04 -0.776714D-02 -0.333221D-01
               26            27 
     26  0.119552D+00
     27 -0.857452D-03  0.115429D+00
 Leave Link  716 at Tue Mar  6 12:16:23 2018, MaxMem=   536870912 cpu:         0.1
 (Enter /share/apps//mg09/l103.exe)

 GradGradGradGradGradGradGradGradGradGradGradGradGradGradGradGradGradGrad
 Berny optimization.
 Search for a local minimum.
 Step number   1 out of a maximum of  100
 All quantities printed in internal units (Hartrees-Bohrs-Radians)
 Second derivative matrix not updated -- first step.
 ITU=  0
     Eigenvalues ---    0.06943   0.08898   0.11106   0.11717   0.12145
     Eigenvalues ---    0.12680   0.13174   0.14254   0.15150   0.16024
     Eigenvalues ---    0.16359   0.20135   0.21076   0.22540   0.23252
     Eigenvalues ---    0.23576   0.26213   0.26583   0.28110   0.30116
     Eigenvalues ---    0.30687
 RFO step:  Lambda=-8.27509711D-03 EMin= 6.94336614D-02
 Linear search not attempted -- first point.
 TrRot=  0.000337  0.000008 -0.003263  0.622503 -0.000148 -0.622488
 Variable       Old X    -DE/DX   Delta X   Delta X   Delta X     New X
                                 (Linear)    (Quad)   (Total)
    X1        2.46698  -0.00665   0.00000  -0.02923  -0.02897   2.43802
    Y1       -4.00220   0.00687   0.00000   0.05821   0.05815  -3.94404
    Z1        1.13662   0.00028   0.00000  -0.00434  -0.00765   1.12897
    X2       -2.35274   0.00854   0.00000   0.03879   0.03868  -2.31407
    Y2        2.74474  -0.01205   0.00000  -0.05887  -0.05919   2.68555
    Z2        3.41018  -0.00620   0.00000  -0.03418  -0.03749   3.37268
    X3       -1.52553   0.00262   0.00000   0.01025   0.01099  -1.51454
    Y3       -3.35340   0.00786   0.00000   0.04910   0.04934  -3.30406
    Z3       -2.96489   0.00780   0.00000   0.07333   0.06960  -2.89529
    X4        2.48066  -0.00679   0.00000  -0.03453  -0.03439   2.44627
    Y4        3.99542  -0.00684   0.00000  -0.05450  -0.05456   3.94086
    Z4        1.13517   0.00028   0.00000  -0.00341  -0.00603   1.12914
    X5       -2.35917   0.00852   0.00000   0.04166   0.04163  -2.31754
    Y5       -2.73558   0.01204   0.00000   0.05687   0.05655  -2.67903
    Z5        3.41383  -0.00622   0.00000  -0.05255  -0.05633   3.35750
    X6       -1.51809   0.00266   0.00000   0.01582   0.01646  -1.50163
    Y6        3.35729  -0.00788   0.00000  -0.05332  -0.05308   3.30421
    Z6       -2.96434   0.00782   0.00000   0.05613   0.05298  -2.91137
    X7       -5.27884   0.00957   0.00000   0.06210   0.06246  -5.21637
    Y7        0.00598   0.00000   0.00000   0.00475   0.00470   0.01068
    Z7       -0.27201   0.00330   0.00000   0.01920   0.01531  -0.25669
    X8        1.79524  -0.01230   0.00000  -0.06362  -0.06386   1.73137
    Y8       -0.00071   0.00000   0.00000  -0.00073  -0.00111  -0.00182
    Z8        4.87893  -0.01115   0.00000  -0.06298  -0.06603   4.81290
    X9        3.28920  -0.00618   0.00000  -0.04369  -0.04300   3.24619
    Y9       -0.00481   0.00000   0.00000  -0.00112  -0.00081  -0.00561
    Z9       -2.93994   0.00408   0.00000   0.03852   0.03565  -2.90429
         Item               Value     Threshold  Converged?
 Maximum Force            0.012296     0.000450     NO 
 RMS     Force            0.007176     0.000300     NO 
 Maximum Displacement     0.069600     0.001800     NO 
 RMS     Displacement     0.043884     0.001200     NO 
 Predicted change in Energy=-4.353087D-03
 Lowest energy point so far.  Saving SCF results.
 GradGradGradGradGradGradGradGradGradGradGradGradGradGradGradGradGradGrad

 Leave Link  103 at Tue Mar  6 12:16:23 2018, MaxMem=   536870912 cpu:         0.2
 (Enter /share/apps//mg09/l202.exe)
                          Input orientation:                          
 ---------------------------------------------------------------------
 Center     Atomic      Atomic             Coordinates (Angstroms)
 Number     Number       Type             X           Y           Z
 ---------------------------------------------------------------------
      1         83           0        1.290143   -2.087098    0.597428
      2         32           0       -1.224551    1.421132    1.784746
      3         50           0       -0.801460   -1.748435   -1.532120
      4         83           0        1.294512    2.085416    0.597514
      5         32           0       -1.226387   -1.417681    1.776713
      6         50           0       -0.794627    1.748514   -1.540630
      7         83           0       -2.760385    0.005653   -0.135835
      8         32           0        0.916204   -0.000963    2.546876
      9         83           0        1.717812   -0.002970   -1.536884
 ---------------------------------------------------------------------
                    Distance matrix (angstroms):
                    1          2          3          4          5
     1  Bi   0.000000
     2  Ge   4.476728   0.000000
     3  Sn   3.004076   4.607252   0.000000
     4  Bi   4.172516   2.862948   4.860746   0.000000
     5  Ge   2.858628   2.838825   3.352364   4.474051   0.000000
     6  Sn   4.861016   3.368997   3.496966   3.008265   4.606080
     7  Bi   4.617798   2.837429   2.977217   4.615778   2.834938
     8  Ge   2.879607   2.680677   4.758386   2.880296   2.681592
     9  Bi   3.013598   4.660343   3.064866   3.015990   4.652917
                    6          7          8          9
     6  Sn   0.000000
     7  Bi   2.979131   0.000000
     8  Ge   4.763960   4.551295   0.000000
     9  Bi   3.062689   4.692256   4.161691   0.000000
 Stoichiometry    Bi4Ge3Sn2
 Framework group  C1[X(Bi4Ge3Sn2)]
 Deg. of freedom    21
 Full point group                 C1      NOp   1
 RotChk:  IX=3 Diff= 8.62D-03
 Largest Abelian subgroup         C1      NOp   1
 Largest concise Abelian subgroup C1      NOp   1
                         Standard orientation:                         
 ---------------------------------------------------------------------
 Center     Atomic      Atomic             Coordinates (Angstroms)
 Number     Number       Type             X           Y           Z
 ---------------------------------------------------------------------
      1         83           0       -1.295992    2.083061    0.599630
      2         32           0        1.236621   -1.416437    1.774566
      3         50           0        0.785972    1.751296   -1.540423
      4         83           0       -1.286125   -2.089443    0.600136
      5         32           0        1.228731    1.422365    1.766253
      6         50           0        0.791026   -1.745658   -1.548565
      7         83           0        2.757897    0.004057   -0.153884
      8         32           0       -0.905097   -0.001567    2.547363
      9         83           0       -1.727323   -0.002753   -1.532296
 ---------------------------------------------------------------------
 Rotational constants (GHZ):      0.1012926      0.0920122      0.0817891
 Leave Link  202 at Tue Mar  6 12:16:24 2018, MaxMem=   536870912 cpu:         0.0
 (Enter /share/apps//mg09/l301.exe)
 Standard basis: def2TZVP (5D, 7F)
 Ernie: Thresh=  0.10000D-02 Tol=  0.10000D-05 Strict=F.
 There are   519 symmetry adapted cartesian basis functions of A   symmetry.
 There are   444 symmetry adapted basis functions of A   symmetry.
   444 basis functions,   963 primitive gaussians,   519 cartesian basis functions
   116 alpha electrons      116 beta electrons
       nuclear repulsion energy      3622.8178063725 Hartrees.
 IExCor= 1009 DFT=T Ex+Corr=PBE1PBE ExCW=0 ScaHFX=  0.250000
 ScaDFX=  0.750000  0.750000  1.000000  1.000000 ScalE2=  1.000000  1.000000
 IRadAn=      0 IRanWt=     -1 IRanGd=            0 ICorTp=0 IEmpDi=  4
 NAtoms=    9 NActive=    9 NUniq=    9 SFac= 1.00D+00 NAtFMM=   60 NAOKFM=F Big=F
 Integral buffers will be    131072 words long.
 Raffenetti 2 integral format.
 Two-electron integral symmetry is turned on.
 Leave Link  301 at Tue Mar  6 12:16:26 2018, MaxMem=   536870912 cpu:         0.2
 (Enter /share/apps//mg09/l302.exe)
 NPDir=0 NMtPBC=     1 NCelOv=     1 NCel=       1 NClECP=     1 NCelD=      1
         NCelK=      1 NCelE2=     1 NClLst=     1 CellRange=     0.0.
 One-electron integrals computed using PRISM.
   1 Symmetry operations used in ECPInt.
 ECPInt:  NShTT=   10440 NPrTT=   41973 LenC2=    9702 LenP2D=   27550.
 LDataN:  DoStor=T MaxTD1= 8 Len=  415
 NBasis=   444 RedAO= T EigKep=  1.32D-03  NBF=   444
 NBsUse=   444 1.00D-06 EigRej= -1.00D+00 NBFU=   444
 Precomputing XC quadrature grid using
 IXCGrd= 4 IRadAn=           0 IRanWt=          -1 IRanGd=           0 AccXCQ= 0.00D+00.
 Defaulting to unpruned grid for atomic number  83.
 Defaulting to unpruned grid for atomic number  83.
 Defaulting to unpruned grid for atomic number  83.
 Generated NRdTot=       0 NPtTot=           0 NUsed=           0 NTot=          32
 NSgBfM=   500   500   500   500   500 MxSgAt=     9 MxSgA2=     9.
 Leave Link  302 at Tue Mar  6 12:16:34 2018, MaxMem=   536870912 cpu:        33.2
 (Enter /share/apps//mg09/l303.exe)
 DipDrv:  MaxL=1.
 Leave Link  303 at Tue Mar  6 12:16:35 2018, MaxMem=   536870912 cpu:         0.3
 (Enter /share/apps//mg09/l401.exe)
 Initial guess from the checkpoint file:  "Isomer_00.chk"
 B after Tr=     0.000000    0.000000    0.000000
         Rot=    0.999996   -0.000025   -0.002300   -0.001698 Ang=  -0.33 deg.
 Guess basis will be translated and rotated to current coordinates.
 JPrj=2 DoOrth=T DoCkMO=T.
 Generating alternative initial guess.
 ExpMin= 4.62D-02 ExpMax= 4.66D+05 ExpMxC= 4.50D+03 IAcc=2 IRadAn=         4 AccDes= 0.00D+00
 Harris functional with IExCor= 1009 and IRadAn=       4 diagonalized for initial guess.
 HarFok:  IExCor= 1009 AccDes= 0.00D+00 IRadAn=         4 IDoV= 1 UseB2=F ITyADJ=14
 ICtDFT=  3500011 ScaDFX=  1.000000  1.000000  1.000000  1.000000
 Defaulting to unpruned grid for atomic number  83.
 Defaulting to unpruned grid for atomic number  83.
 Defaulting to unpruned grid for atomic number  83.
 Defaulting to unpruned grid for atomic number  83.
 FoFCou: FMM=F IPFlag=           0 FMFlag=      100000 FMFlg1=           0
         NFxFlg=           0 DoJE=T BraDBF=F KetDBF=T FulRan=T
         wScrn=  0.000000 ICntrl=     500 IOpCl=  0 I1Cent=   200000004 NGrid=           0
         NMat0=    1 NMatS0=      1 NMatT0=    0 NMatD0=    1 NMtDS0=    0 NMtDT0=    0
 Petite list used in FoFCou.
 Harris En= -7518.62438363042    
 Leave Link  401 at Tue Mar  6 12:16:38 2018, MaxMem=   536870912 cpu:        13.5
 (Enter /share/apps//mg09/l502.exe)
 Closed shell SCF:
 Using DIIS extrapolation, IDIIS=  1040.
 Integral symmetry usage will be decided dynamically.
 IVT=     1410107 IEndB=     1410107 NGot=   536870912 MDV=   536322046
 LenX=   536322046 LenY=   536052166
 Requested convergence on RMS density matrix=1.00D-08 within 768 cycles.
 Requested convergence on MAX density matrix=1.00D-06.
 Requested convergence on             energy=1.00D-06.
 No special actions if energy rises.
 Fock matrices will be formed incrementally for  20 cycles.

 Cycle   1  Pass 1  IDiag  1:
 FoFJK:  IHMeth= 1 ICntrl=       0 DoSepK=F KAlg= 0 I1Cent=   0 FoldK=F
 IRaf= 880000000 NMat=   1 IRICut=       1 DoRegI=T DoRafI=F ISym2E= 0.
 FoFCou: FMM=F IPFlag=           0 FMFlag=      100000 FMFlg1=           0
         NFxFlg=           0 DoJE=F BraDBF=F KetDBF=F FulRan=T
         wScrn=  0.000000 ICntrl=       0 IOpCl=  0 I1Cent=           0 NGrid=           0
         NMat0=    1 NMatS0=      1 NMatT0=    0 NMatD0=    1 NMtDS0=    0 NMtDT0=    0
 Symmetry not used in FoFCou.
 Defaulting to unpruned grid for atomic number  83.
 Defaulting to unpruned grid for atomic number  83.
 Defaulting to unpruned grid for atomic number  83.
 Defaulting to unpruned grid for atomic number  83.
 E= -7517.82866355487    
 DIIS: error= 5.47D-03 at cycle   1 NSaved=   1.
 NSaved= 1 IEnMin= 1 EnMin= -7517.82866355487     IErMin= 1 ErrMin= 5.47D-03
 ErrMax= 5.47D-03  0.00D+00 EMaxC= 1.00D-01 BMatC= 8.00D-03 BMatP= 8.00D-03
 IDIUse=3 WtCom= 9.45D-01 WtEn= 5.47D-02
 Coeff-Com:  0.100D+01
 Coeff-En:   0.100D+01
 Coeff:      0.100D+01
 Gap=     7.232 Goal=   None    Shift=    0.000
 GapD=    7.232 DampG=2.000 DampE=1.000 DampFc=2.0000 IDamp=-1.
 RMSDP=1.82D-04 MaxDP=3.87D-03              OVMax= 2.27D-02

 Cycle   2  Pass 1  IDiag  1:
 RMSU=  1.81D-04    CP:  1.00D+00
 E= -7517.82873602259     Delta-E=       -0.000072467721 Rises=F Damp=F
 DIIS: error= 1.66D-03 at cycle   2 NSaved=   2.
 NSaved= 2 IEnMin= 2 EnMin= -7517.82873602259     IErMin= 2 ErrMin= 1.66D-03
 ErrMax= 1.66D-03  0.00D+00 EMaxC= 1.00D-01 BMatC= 1.58D-03 BMatP= 8.00D-03
 IDIUse=3 WtCom= 9.83D-01 WtEn= 1.66D-02
 Coeff-Com:  0.204D+00 0.796D+00
 Coeff-En:   0.480D+00 0.520D+00
 Coeff:      0.209D+00 0.791D+00
 Gap=     0.128 Goal=   None    Shift=    0.000
 RMSDP=2.04D-04 MaxDP=8.62D-03 DE=-7.25D-05 OVMax= 1.59D-02

 Cycle   3  Pass 1  IDiag  1:
 RMSU=  1.91D-04    CP:  9.99D-01  6.29D-01
 E= -7517.82679575892     Delta-E=        0.001940263672 Rises=F Damp=F
 DIIS: error= 2.39D-03 at cycle   3 NSaved=   3.
 NSaved= 3 IEnMin= 2 EnMin= -7517.82873602259     IErMin= 2 ErrMin= 1.66D-03
 ErrMax= 2.39D-03  0.00D+00 EMaxC= 1.00D-01 BMatC= 3.72D-03 BMatP= 1.58D-03
 IDIUse=3 WtCom= 1.70D-01 WtEn= 8.30D-01
 Coeff-Com:  0.791D-02 0.604D+00 0.388D+00
 Coeff-En:   0.000D+00 0.665D+00 0.335D+00
 Coeff:      0.134D-02 0.655D+00 0.344D+00
 Gap=     0.130 Goal=   None    Shift=    0.000
 RMSDP=1.15D-04 MaxDP=4.81D-03 DE= 1.94D-03 OVMax= 1.15D-02

 Cycle   4  Pass 1  IDiag  1:
 RMSU=  4.34D-05    CP:  9.99D-01  8.50D-01  4.88D-01
 E= -7517.82983251551     Delta-E=       -0.003036756592 Rises=F Damp=F
 DIIS: error= 5.30D-04 at cycle   4 NSaved=   4.
 NSaved= 4 IEnMin= 4 EnMin= -7517.82983251551     IErMin= 4 ErrMin= 5.30D-04
 ErrMax= 5.30D-04  0.00D+00 EMaxC= 1.00D-01 BMatC= 2.23D-04 BMatP= 1.58D-03
 IDIUse=3 WtCom= 9.95D-01 WtEn= 5.30D-03
 Coeff-Com: -0.639D-04 0.434D+00 0.234D+00 0.332D+00
 Coeff-En:   0.000D+00 0.879D-01 0.000D+00 0.912D+00
 Coeff:     -0.635D-04 0.432D+00 0.233D+00 0.335D+00
 Gap=     0.129 Goal=   None    Shift=    0.000
 RMSDP=3.89D-05 MaxDP=1.65D-03 DE=-3.04D-03 OVMax= 3.85D-03

 Cycle   5  Pass 1  IDiag  1:
 RMSU=  1.41D-05    CP:  9.99D-01  9.03D-01  4.43D-01  2.26D-01
 E= -7517.83001275144     Delta-E=       -0.000180235933 Rises=F Damp=F
 DIIS: error= 1.41D-04 at cycle   5 NSaved=   5.
 NSaved= 5 IEnMin= 5 EnMin= -7517.83001275144     IErMin= 5 ErrMin= 1.41D-04
 ErrMax= 1.41D-04  0.00D+00 EMaxC= 1.00D-01 BMatC= 1.50D-05 BMatP= 2.23D-04
 IDIUse=3 WtCom= 9.99D-01 WtEn= 1.41D-03
 Coeff-Com: -0.107D-02 0.217D+00 0.107D+00 0.243D+00 0.434D+00
 Coeff-En:   0.000D+00 0.000D+00 0.000D+00 0.748D-01 0.925D+00
 Coeff:     -0.106D-02 0.217D+00 0.107D+00 0.242D+00 0.435D+00
 Gap=     0.130 Goal=   None    Shift=    0.000
 RMSDP=1.05D-05 MaxDP=6.09D-04 DE=-1.80D-04 OVMax= 1.10D-03

 Cycle   6  Pass 1  IDiag  1:
 RMSU=  3.77D-06    CP:  9.99D-01  9.11D-01  4.36D-01  4.03D-01  6.23D-01
 E= -7517.83002868946     Delta-E=       -0.000015938022 Rises=F Damp=F
 DIIS: error= 1.95D-05 at cycle   6 NSaved=   6.
 NSaved= 6 IEnMin= 6 EnMin= -7517.83002868946     IErMin= 6 ErrMin= 1.95D-05
 ErrMax= 1.95D-05  0.00D+00 EMaxC= 1.00D-01 BMatC= 3.12D-07 BMatP= 1.50D-05
 IDIUse=1 WtCom= 1.00D+00 WtEn= 0.00D+00
 Coeff-Com: -0.374D-03 0.478D-01 0.250D-01 0.635D-01 0.170D+00 0.694D+00
 Coeff:     -0.374D-03 0.478D-01 0.250D-01 0.635D-01 0.170D+00 0.694D+00
 Gap=     0.130 Goal=   None    Shift=    0.000
 RMSDP=2.74D-06 MaxDP=1.19D-04 DE=-1.59D-05 OVMax= 3.37D-04

 Cycle   7  Pass 1  IDiag  1:
 RMSU=  2.29D-06    CP:  9.99D-01  9.15D-01  4.40D-01  3.93D-01  6.87D-01
                    CP:  9.27D-01
 E= -7517.83002866688     Delta-E=        0.000000022581 Rises=F Damp=F
 DIIS: error= 2.01D-05 at cycle   7 NSaved=   7.
 NSaved= 7 IEnMin= 6 EnMin= -7517.83002868946     IErMin= 6 ErrMin= 1.95D-05
 ErrMax= 2.01D-05  0.00D+00 EMaxC= 1.00D-01 BMatC= 3.14D-07 BMatP= 3.12D-07
 IDIUse=1 WtCom= 1.00D+00 WtEn= 0.00D+00
 Coeff-Com: -0.110D-03-0.961D-03 0.126D-02 0.841D-02 0.580D-01 0.565D+00
 Coeff-Com:  0.369D+00
 Coeff:     -0.110D-03-0.961D-03 0.126D-02 0.841D-02 0.580D-01 0.565D+00
 Coeff:      0.369D+00
 Gap=     0.130 Goal=   None    Shift=    0.000
 RMSDP=1.96D-06 MaxDP=7.29D-05 DE= 2.26D-08 OVMax= 2.61D-04

 Cycle   8  Pass 1  IDiag  1:
 RMSU=  8.50D-07    CP:  9.99D-01  9.16D-01  4.42D-01  3.94D-01  7.02D-01
                    CP:  1.14D+00  3.41D-01
 E= -7517.83002901445     Delta-E=       -0.000000347569 Rises=F Damp=F
 DIIS: error= 7.03D-06 at cycle   8 NSaved=   8.
 NSaved= 8 IEnMin= 8 EnMin= -7517.83002901445     IErMin= 8 ErrMin= 7.03D-06
 ErrMax= 7.03D-06  0.00D+00 EMaxC= 1.00D-01 BMatC= 4.96D-08 BMatP= 3.12D-07
 IDIUse=1 WtCom= 1.00D+00 WtEn= 0.00D+00
 Coeff-Com:  0.253D-04-0.166D-01-0.706D-02-0.123D-01-0.717D-02 0.263D+00
 Coeff-Com:  0.301D+00 0.479D+00
 Coeff:      0.253D-04-0.166D-01-0.706D-02-0.123D-01-0.717D-02 0.263D+00
 Coeff:      0.301D+00 0.479D+00
 Gap=     0.130 Goal=   None    Shift=    0.000
 RMSDP=7.43D-07 MaxDP=5.25D-05 DE=-3.48D-07 OVMax= 7.91D-05

 Cycle   9  Pass 1  IDiag  1:
 RMSU=  3.12D-07    CP:  9.99D-01  9.17D-01  4.42D-01  3.99D-01  7.10D-01
                    CP:  1.16D+00  5.15D-01  4.75D-01
 E= -7517.83002907702     Delta-E=       -0.000000062570 Rises=F Damp=F
 DIIS: error= 1.59D-06 at cycle   9 NSaved=   9.
 NSaved= 9 IEnMin= 9 EnMin= -7517.83002907702     IErMin= 9 ErrMin= 1.59D-06
 ErrMax= 1.59D-06  0.00D+00 EMaxC= 1.00D-01 BMatC= 2.47D-09 BMatP= 4.96D-08
 IDIUse=1 WtCom= 1.00D+00 WtEn= 0.00D+00
 Coeff-Com:  0.230D-04-0.913D-02-0.400D-02-0.695D-02-0.916D-02 0.102D+00
 Coeff-Com:  0.142D+00 0.285D+00 0.500D+00
 Coeff:      0.230D-04-0.913D-02-0.400D-02-0.695D-02-0.916D-02 0.102D+00
 Coeff:      0.142D+00 0.285D+00 0.500D+00
 Gap=     0.130 Goal=   None    Shift=    0.000
 RMSDP=1.85D-07 MaxDP=1.04D-05 DE=-6.26D-08 OVMax= 2.64D-05

 Cycle  10  Pass 1  IDiag  1:
 RMSU=  9.95D-08    CP:  9.99D-01  9.17D-01  4.42D-01  4.00D-01  7.13D-01
                    CP:  1.16D+00  5.09D-01  5.99D-01  7.49D-01
 E= -7517.83002908038     Delta-E=       -0.000000003358 Rises=F Damp=F
 DIIS: error= 2.73D-07 at cycle  10 NSaved=  10.
 NSaved=10 IEnMin=10 EnMin= -7517.83002908038     IErMin=10 ErrMin= 2.73D-07
 ErrMax= 2.73D-07  0.00D+00 EMaxC= 1.00D-01 BMatC= 1.67D-10 BMatP= 2.47D-09
 IDIUse=1 WtCom= 1.00D+00 WtEn= 0.00D+00
 Coeff-Com:  0.405D-05-0.753D-03-0.304D-03-0.658D-03-0.249D-02-0.422D-02
 Coeff-Com:  0.843D-02 0.264D-01 0.210D+00 0.764D+00
 Coeff:      0.405D-05-0.753D-03-0.304D-03-0.658D-03-0.249D-02-0.422D-02
 Coeff:      0.843D-02 0.264D-01 0.210D+00 0.764D+00
 Gap=     0.130 Goal=   None    Shift=    0.000
 RMSDP=7.40D-08 MaxDP=3.33D-06 DE=-3.36D-09 OVMax= 9.63D-06

 Cycle  11  Pass 1  IDiag  1:
 RMSU=  5.25D-08    CP:  9.99D-01  9.17D-01  4.42D-01  4.01D-01  7.14D-01
                    CP:  1.17D+00  5.14D-01  5.99D-01  8.56D-01  8.89D-01
 E= -7517.83002908009     Delta-E=        0.000000000287 Rises=F Damp=F
 DIIS: error= 4.58D-07 at cycle  11 NSaved=  11.
 NSaved=11 IEnMin=10 EnMin= -7517.83002908038     IErMin=10 ErrMin= 2.73D-07
 ErrMax= 4.58D-07  0.00D+00 EMaxC= 1.00D-01 BMatC= 1.53D-10 BMatP= 1.67D-10
 IDIUse=1 WtCom= 1.00D+00 WtEn= 0.00D+00
 Coeff-Com:  0.460D-06 0.460D-03 0.232D-03 0.267D-03-0.855D-03-0.148D-01
 Coeff-Com: -0.930D-02-0.135D-01 0.109D+00 0.593D+00 0.336D+00
 Coeff:      0.460D-06 0.460D-03 0.232D-03 0.267D-03-0.855D-03-0.148D-01
 Coeff:     -0.930D-02-0.135D-01 0.109D+00 0.593D+00 0.336D+00
 Gap=     0.130 Goal=   None    Shift=    0.000
 RMSDP=4.06D-08 MaxDP=1.73D-06 DE= 2.87D-10 OVMax= 4.64D-06

 Cycle  12  Pass 1  IDiag  1:
 RMSU=  2.06D-08    CP:  9.99D-01  9.17D-01  4.42D-01  4.00D-01  7.14D-01
                    CP:  1.17D+00  5.17D-01  5.99D-01  8.69D-01  1.03D+00
                    CP:  4.12D-01
 E= -7517.83002908067     Delta-E=       -0.000000000578 Rises=F Damp=F
 DIIS: error= 1.34D-07 at cycle  12 NSaved=  12.
 NSaved=12 IEnMin=12 EnMin= -7517.83002908067     IErMin=12 ErrMin= 1.34D-07
 ErrMax= 1.34D-07  0.00D+00 EMaxC= 1.00D-01 BMatC= 1.45D-11 BMatP= 1.53D-10
 IDIUse=1 WtCom= 1.00D+00 WtEn= 0.00D+00
 Coeff-Com: -0.583D-06 0.527D-03 0.253D-03 0.351D-03-0.325D-04-0.102D-01
 Coeff-Com: -0.891D-02-0.172D-01 0.340D-01 0.261D+00 0.245D+00 0.495D+00
 Coeff:     -0.583D-06 0.527D-03 0.253D-03 0.351D-03-0.325D-04-0.102D-01
 Coeff:     -0.891D-02-0.172D-01 0.340D-01 0.261D+00 0.245D+00 0.495D+00
 Gap=     0.130 Goal=   None    Shift=    0.000
 RMSDP=1.38D-08 MaxDP=6.63D-07 DE=-5.78D-10 OVMax= 1.63D-06

 Cycle  13  Pass 1  IDiag  1:
 RMSU=  8.24D-09    CP:  9.99D-01  9.17D-01  4.42D-01  4.00D-01  7.14D-01
                    CP:  1.17D+00  5.18D-01  6.00D-01  8.80D-01  1.05D+00
                    CP:  5.09D-01  6.04D-01
 E= -7517.83002908056     Delta-E=        0.000000000109 Rises=F Damp=F
 DIIS: error= 3.55D-08 at cycle  13 NSaved=  13.
 NSaved=13 IEnMin=12 EnMin= -7517.83002908067     IErMin=13 ErrMin= 3.55D-08
 ErrMax= 3.55D-08  0.00D+00 EMaxC= 1.00D-01 BMatC= 1.67D-12 BMatP= 1.45D-11
 IDIUse=1 WtCom= 1.00D+00 WtEn= 0.00D+00
 Coeff-Com: -0.438D-06 0.267D-03 0.127D-03 0.187D-03 0.124D-03-0.418D-02
 Coeff-Com: -0.431D-02-0.931D-02 0.408D-02 0.738D-01 0.105D+00 0.318D+00
 Coeff-Com:  0.516D+00
 Coeff:     -0.438D-06 0.267D-03 0.127D-03 0.187D-03 0.124D-03-0.418D-02
 Coeff:     -0.431D-02-0.931D-02 0.408D-02 0.738D-01 0.105D+00 0.318D+00
 Coeff:      0.516D+00
 Gap=     0.130 Goal=   None    Shift=    0.000
 RMSDP=4.82D-09 MaxDP=3.11D-07 DE= 1.09D-10 OVMax= 6.72D-07

 SCF Done:  E(RPBE1PBE) =  -7517.83002908     A.U. after   13 cycles
            NFock= 13  Conv=0.48D-08     -V/T= 2.1284
 KE= 6.662159336156D+03 PE=-2.483702182029D+04 EE= 7.034214648677D+03
 Leave Link  502 at Tue Mar  6 12:28:03 2018, MaxMem=   536870912 cpu:      2704.1
 (Enter /share/apps//mg09/l701.exe)
 Compute integral first derivatives.
 ... and contract with generalized density number  0.
   1 Symmetry operations used in ECPInt.
 ECPInt:  NShTT=   10440 NPrTT=   41973 LenC2=    9702 LenP2D=   27550.
 LDataN:  DoStor=T MaxTD1= 9 Len=  602
 Leave Link  701 at Tue Mar  6 12:28:25 2018, MaxMem=   536870912 cpu:        77.6
 (Enter /share/apps//mg09/l702.exe)
 L702 exits ... SP integral derivatives will be done elsewhere.
 Leave Link  702 at Tue Mar  6 12:28:25 2018, MaxMem=   536870912 cpu:         0.0
 (Enter /share/apps//mg09/l703.exe)
 Compute integral first derivatives, UseDBF=F ICtDFT=           0.
 Integral derivatives from FoFJK, PRISM(SPDF).
 Calling FoFJK, ICntrl=      2127 FMM=F ISym2X=0 I1Cent= 0 IOpClX= 0 NMat=1 NMatS=1 NMatT=0.
 FoFJK:  IHMeth= 1 ICntrl=    2127 DoSepK=F KAlg= 0 I1Cent=   0 FoldK=F
 IRaf=         0 NMat=   1 IRICut=       1 DoRegI=T DoRafI=F ISym2E= 0.
 FoFCou: FMM=F IPFlag=           0 FMFlag=      100000 FMFlg1=         800
         NFxFlg=           0 DoJE=F BraDBF=F KetDBF=F FulRan=T
         wScrn=  0.000000 ICntrl=    2127 IOpCl=  0 I1Cent=           0 NGrid=           0
         NMat0=    1 NMatS0=      1 NMatT0=    0 NMatD0=    1 NMtDS0=    0 NMtDT0=    0
 Symmetry not used in FoFCou.
 Defaulting to unpruned grid for atomic number  83.
 Defaulting to unpruned grid for atomic number  83.
 Defaulting to unpruned grid for atomic number  83.
 Defaulting to unpruned grid for atomic number  83.
 Leave Link  703 at Tue Mar  6 12:33:32 2018, MaxMem=   536870912 cpu:      1133.9
 (Enter /share/apps//mg09/l716.exe)
 Dipole        =-1.33338070D-01-1.59362973D-04-7.12356177D-01
 ***** Axes restored to original set *****
 -------------------------------------------------------------------
 Center     Atomic                   Forces (Hartrees/Bohr)
 Number     Number              X              Y              Z
 -------------------------------------------------------------------
      1       83          -0.002207804    0.000684009    0.001908605
      2       32           0.005375128   -0.007039872   -0.002933841
      3       50           0.001012328    0.003687223    0.002655341
      4       83          -0.002561282   -0.000927296    0.001642413
      5       32           0.005001219    0.006843020   -0.002409954
      6       50           0.001083558   -0.003734997    0.003117198
      7       83           0.001234718    0.000158643    0.001947176
      8       32          -0.007622921    0.000122364   -0.004773143
      9       83          -0.001314943    0.000206905   -0.001153796
 -------------------------------------------------------------------
 Cartesian Forces:  Max     0.007622921 RMS     0.003440889
 Leave Link  716 at Tue Mar  6 12:33:32 2018, MaxMem=   536870912 cpu:         0.1
 (Enter /share/apps//mg09/l103.exe)

 GradGradGradGradGradGradGradGradGradGradGradGradGradGradGradGradGradGrad
 Berny optimization.
 Search for a local minimum.
 Step number   2 out of a maximum of  100
 All quantities printed in internal units (Hartrees-Bohrs-Radians)
 Update second derivatives using D2CorN and points    1    2
 DE= -5.89D-03 DEPred=-4.35D-03 R= 1.35D+00
 TightC=F SS=  1.41D+00  RLast= 2.28D-01 DXNew= 5.0454D-01 6.8408D-01
 Trust test= 1.35D+00 RLast= 2.28D-01 DXMaxT set to 5.05D-01
 ITU=  1  0
     Eigenvalues ---    0.06579   0.08679   0.10055   0.11259   0.11854
     Eigenvalues ---    0.12355   0.13062   0.13335   0.14444   0.15717
     Eigenvalues ---    0.16360   0.20073   0.20805   0.22333   0.23175
     Eigenvalues ---    0.23577   0.26214   0.26489   0.28022   0.30063
     Eigenvalues ---    0.30673
 RFO step:  Lambda=-6.24523652D-04 EMin= 6.57865569D-02
 Quartic linear search produced a step of  0.60494.
 TrRot=  0.000001  0.000029  0.000101 -0.000002 -0.000043 -0.000002
 MatCor failed.
 Variable       Old X    -DE/DX   Delta X   Delta X   Delta X     New X
                                 (Linear)    (Quad)   (Total)
    X1        2.43802  -0.00221  -0.01752   0.00299  -0.01459   2.42343
    Y1       -3.94404   0.00068   0.03518  -0.01439   0.02081  -3.92323
    Z1        1.12897   0.00191  -0.00463   0.01347   0.00904   1.13802
    X2       -2.31407   0.00538   0.02340   0.01031   0.03357  -2.28049
    Y2        2.68555  -0.00704  -0.03581  -0.01347  -0.04924   2.63631
    Z2        3.37268  -0.00293  -0.02268  -0.00074  -0.02341   3.34927
    X3       -1.51454   0.00101   0.00665   0.00030   0.00706  -1.50748
    Y3       -3.30406   0.00369   0.02985   0.00355   0.03343  -3.27063
    Z3       -2.89529   0.00266   0.04210  -0.00858   0.03356  -2.86173
    X4        2.44627  -0.00256  -0.02080   0.00176  -0.01908   2.42719
    Y4        3.94086  -0.00093  -0.03300   0.01096  -0.02202   3.91885
    Z4        1.12914   0.00164  -0.00365   0.00977   0.00633   1.13547
    X5       -2.31754   0.00500   0.02518   0.00919   0.03422  -2.28331
    Y5       -2.67903   0.00684   0.03421   0.01404   0.04828  -2.63074
    Z5        3.35750  -0.00241  -0.03408   0.00208  -0.03200   3.32551
    X6       -1.50163   0.00108   0.00996  -0.00057   0.00952  -1.49210
    Y6        3.30421  -0.00373  -0.03211  -0.00351  -0.03558   3.26863
    Z6       -2.91137   0.00312   0.03205  -0.00161   0.03047  -2.88090
    X7       -5.21637   0.00123   0.03779  -0.01511   0.02269  -5.19369
    Y7        0.01068   0.00016   0.00284   0.00016   0.00305   0.01373
    Z7       -0.25669   0.00195   0.00926   0.00957   0.01872  -0.23798
    X8        1.73137  -0.00762  -0.03863  -0.02060  -0.05944   1.67193
    Y8       -0.00182   0.00012  -0.00067   0.00095   0.00030  -0.00152
    Z8        4.81290  -0.00477  -0.03995   0.00177  -0.03801   4.77489
    X9        3.24619  -0.00131  -0.02601   0.01193  -0.01396   3.23224
    Y9       -0.00561   0.00021  -0.00049   0.00143   0.00096  -0.00466
    Z9       -2.90429  -0.00115   0.02157  -0.02651  -0.00470  -2.90899
         Item               Value     Threshold  Converged?
 Maximum Force            0.007623     0.000450     NO 
 RMS     Force            0.003441     0.000300     NO 
[...]
             X                                X  X        X                                                                          
             X                                X  X        X                                                                          
             X                                X  X        X                                                                          
             X                                X  X        X                                                                          
                                              X  X        X                                                                          
                                                 X                                                                                   
                                                 X                                                                                   
                                                 X                                                                                   
                                                 X                                                                                   
                                                 X                                                                                   
                                                 X                                                                                   
                                                 X                                                                                   
                                                 X                                                                                   
                                                 X                                                                                   
                                                 X                                                                                   
 
 ***** Axes restored to original set *****
 -------------------------------------------------------------------
 Center     Atomic                   Forces (Hartrees/Bohr)
 Number     Number              X              Y              Z
 -------------------------------------------------------------------
      1       83          -0.000001898   -0.000042382   -0.000020528
      2       32          -0.000003084   -0.000086675    0.000054152
      3       50           0.000010971    0.000010892    0.000055787
      4       83          -0.000042403   -0.000019263   -0.000028301
      5       32          -0.000016787    0.000036654   -0.000029993
      6       50           0.000015491    0.000045350   -0.000060932
      7       83          -0.000022454    0.000007968   -0.000022344
      8       32           0.000065132    0.000040488    0.000013740
      9       83          -0.000004967    0.000006967    0.000038418
 -------------------------------------------------------------------
 Cartesian Forces:  Max     0.000086675 RMS     0.000036625
 Force constants in Cartesian coordinates: 
                1             2             3             4             5 
      1  0.631455D-01
      2 -0.223071D-01  0.642046D-01
      3 -0.135894D-02 -0.805643D-02  0.665143D-01
      4 -0.445678D-02  0.677521D-03  0.213202D-02  0.774366D-01
      5  0.684462D-03 -0.555895D-02 -0.377774D-02 -0.584362D-04  0.584997D-01
      6  0.131815D-02 -0.226644D-03 -0.282022D-02  0.331111D-02  0.138737D-01
      7 -0.190648D-01  0.535388D-02 -0.182161D-01  0.224199D-02  0.205161D-02
      8  0.652116D-02 -0.262938D-02  0.154913D-02 -0.296994D-02 -0.459978D-02
      9 -0.186286D-01  0.134305D-02 -0.194504D-01 -0.755764D-03 -0.100213D-02
     10  0.163523D-02  0.347409D-02  0.391688D-03 -0.294392D-01 -0.134473D-01
     11 -0.350162D-02 -0.587218D-02  0.222808D-03 -0.101392D-01 -0.420410D-02
     12  0.395537D-03 -0.212318D-03 -0.178194D-03  0.151336D-01  0.200081D-02
     13 -0.292666D-01  0.102143D-01  0.151308D-01 -0.220545D-02  0.214516D-02
     14  0.134998D-01 -0.426002D-02 -0.204930D-02 -0.217691D-02 -0.240363D-01
     15  0.123542D-01 -0.106255D-02 -0.597753D-02  0.358039D-02 -0.221471D-02
     16 -0.450100D-04  0.707488D-03 -0.509897D-02 -0.149661D-03  0.276632D-02
     17 -0.946168D-03 -0.308818D-02  0.424128D-02  0.242688D-02 -0.416263D-03
     18 -0.150542D-02 -0.141918D-02 -0.638794D-03  0.108450D-02  0.133295D-02
     19 -0.245473D-02 -0.626459D-03 -0.633312D-03 -0.178380D-01 -0.106340D-01
     20  0.312332D-02 -0.965510D-04  0.307827D-02 -0.126911D-01 -0.963133D-02
     21  0.650254D-03  0.125071D-02  0.213023D-03 -0.170025D-01 -0.139704D-01
     22 -0.401360D-02  0.505460D-02  0.119579D-02 -0.231707D-01  0.153913D-01
     23  0.524639D-02 -0.196133D-01 -0.177964D-01  0.185862D-01 -0.983152D-02
     24  0.115319D-02 -0.147011D-01 -0.163667D-01 -0.900316D-02  0.233887D-02
     25 -0.547912D-02 -0.254834D-02  0.645697D-02 -0.241883D-02  0.110089D-02
     26 -0.232029D-02 -0.230861D-01  0.225883D-01  0.634501D-02 -0.221376D-03
     27  0.562162D-02  0.230844D-01 -0.212955D-01  0.151983D-02  0.141869D-02
                6             7             8             9            10 
      6  0.440154D-01
      7  0.440685D-02  0.636026D-01
      8 -0.277931D-02 -0.187741D-02  0.433310D-01
      9 -0.484398D-02  0.802323D-02  0.179963D-01  0.445474D-01
     10  0.123433D-01 -0.268250D-04  0.940568D-03 -0.150716D-02  0.634279D-01
     11  0.101420D-02 -0.718025D-03 -0.308449D-02  0.143314D-02  0.223518D-01
     12 -0.595193D-02 -0.511158D-02 -0.422131D-02 -0.649235D-03 -0.131050D-02
     13  0.359621D-02 -0.181146D-03 -0.242932D-02  0.105713D-02 -0.445272D-02
     14  0.228506D-02 -0.275750D-02 -0.407438D-03 -0.133569D-02 -0.669899D-03
     15  0.137125D-02  0.152379D-02  0.497548D-03 -0.413234D-02  0.132958D-02
     16  0.154550D-02  0.126083D-02 -0.112274D-03 -0.272445D-02 -0.191592D-01
     17 -0.478470D-03  0.999234D-04 -0.871092D-02  0.631166D-03 -0.647681D-02
     18 -0.428556D-02 -0.272746D-02 -0.643063D-03 -0.105923D-02 -0.186423D-01
     19 -0.142176D-01 -0.227332D-01  0.142555D-01  0.115752D-01 -0.244518D-02
     20 -0.135132D-01  0.156102D-01 -0.135000D-01 -0.114579D-01 -0.309160D-02
     21 -0.175734D-01  0.122062D-01 -0.112495D-01 -0.975098D-02  0.662960D-03
     22 -0.131674D-01 -0.177347D-02 -0.127956D-02 -0.272110D-03 -0.406859D-02
     23  0.440354D-02 -0.410391D-02 -0.160571D-03 -0.514761D-02 -0.531793D-02
     24 -0.556481D-02 -0.185049D-02  0.153430D-02 -0.496245D-02  0.120916D-02
     25  0.863910D-03 -0.233259D-01 -0.130488D-01  0.323253D-02 -0.547134D-02
     26 -0.457886D-02 -0.136587D-01 -0.102384D-01 -0.246026D-02  0.223714D-02
     27 -0.434676D-02  0.174552D-02 -0.268406D-02  0.301171D-03  0.552323D-02
               11            12            13            14            15 
     11  0.640489D-01
     12  0.807219D-02  0.664021D-01
     13 -0.678181D-03  0.213776D-02  0.776099D-01
     14 -0.556334D-02  0.376747D-02  0.156486D-03  0.584796D-01
     15  0.216415D-03 -0.283444D-02  0.339245D-02 -0.139097D-01  0.439037D-01
     16 -0.531963D-02 -0.182392D-01  0.225147D-02 -0.207028D-02  0.441446D-02
     17 -0.258827D-02 -0.150138D-02  0.295761D-02 -0.461101D-02  0.276839D-02
     18 -0.127463D-02 -0.193891D-01 -0.755397D-03  0.101723D-02 -0.484392D-02
     19  0.633743D-03 -0.639785D-03 -0.177840D-01  0.106107D-01 -0.142357D-01
     20 -0.867777D-04 -0.307286D-02  0.126621D-01 -0.963953D-02  0.135199D-01
     21 -0.125383D-02  0.210911D-03 -0.170049D-01  0.139834D-01 -0.176359D-01
     22 -0.511137D-02  0.126223D-02 -0.235320D-01 -0.154904D-01 -0.132257D-01
     23 -0.195551D-01  0.177661D-01 -0.186906D-01 -0.976981D-02 -0.439345D-02
     24  0.146745D-01 -0.163375D-01 -0.906456D-02 -0.232595D-02 -0.550639D-02
     25  0.248252D-02  0.637200D-02 -0.243949D-02 -0.110201D-02  0.866534D-03
     26 -0.230947D-01 -0.225987D-01 -0.633749D-02 -0.192170D-03  0.457818D-02
     27 -0.231048D-01 -0.212726D-01  0.151047D-02 -0.143252D-02 -0.434439D-02
               16            17            18            19            20 
     16  0.635809D-01
     17  0.188295D-02  0.433768D-01
     18  0.798257D-02 -0.180346D-01  0.446043D-01
     19 -0.227998D-01 -0.142812D-01  0.115687D-01  0.915943D-01
     20 -0.156429D-01 -0.134743D-01  0.114398D-01  0.283054D-04  0.510752D-01
     21  0.122025D-01  0.112350D-01 -0.971908D-02  0.812362D-02 -0.559993D-05
     22 -0.176116D-02  0.127686D-02 -0.253714D-03 -0.338163D-02  0.000000D+00
     23  0.411695D-02 -0.175826D-03  0.514649D-02  0.457796D-05 -0.494258D-02
     24 -0.185811D-02 -0.152529D-02 -0.496580D-02 -0.464956D-03  0.000000D+00
     25 -0.231784D-01  0.130600D-01  0.324850D-02 -0.215779D-02  0.123731D-05
     26  0.136714D-01 -0.103120D-01  0.243500D-02  0.882361D-05  0.295883D-03
     27  0.177571D-02  0.266395D-02  0.297136D-03 -0.107613D-02  0.119891D-04
               21            22            23            24            25 
     21  0.581090D-01
     22 -0.240699D-02  0.604474D-01
     23  0.939148D-05  0.158019D-03  0.640018D-01
     24 -0.280765D-02  0.218224D-01  0.882254D-05  0.603331D-01
     25  0.256880D-02  0.125369D-02  0.000000D+00 -0.194348D-02  0.632172D-01
     26  0.000000D+00  0.000000D+00  0.468242D-04 -0.378503D-05  0.540931D-04
     27 -0.104593D-02  0.504552D-02  0.309389D-05 -0.382175D-02 -0.216658D-01
               26            27 
     26  0.668020D-01
     27  0.391775D-04  0.555287D-01
 Leave Link  716 at Tue Mar  6 16:04:17 2018, MaxMem=   536870912 cpu:         0.1
 (Enter /share/apps//mg09/l103.exe)

 GradGradGradGradGradGradGradGradGradGradGradGradGradGradGradGradGradGrad
 Berny optimization.
 Search for a local minimum.
 Step number   1 out of a maximum of    2
 All quantities printed in internal units (Hartrees-Bohrs-Radians)
 Second derivative matrix not updated -- analytic derivatives used.
 ITU=  0
     Eigenvalues ---    0.00483   0.01229   0.02530   0.03411   0.04490
     Eigenvalues ---    0.04895   0.05852   0.05947   0.06041   0.06103
     Eigenvalues ---    0.07101   0.07432   0.08717   0.08972   0.09992
     Eigenvalues ---    0.10895   0.12091   0.12475   0.13641   0.14240
     Eigenvalues ---    0.15440
 Angle between quadratic step and forces=  48.07 degrees.
 Linear search not attempted -- first point.
 TrRot=  0.000043 -0.000041  0.000037  0.000004  0.000038  0.000004
 MatCor failed.
 Variable       Old X    -DE/DX   Delta X   Delta X   Delta X     New X
                                 (Linear)    (Quad)   (Total)
    X1        2.41025   0.00000   0.00000  -0.00168  -0.00156   2.40869
    Y1       -3.96232  -0.00004   0.00000  -0.00327  -0.00329  -3.96561
    Z1        1.13791  -0.00002   0.00000   0.00006   0.00001   1.13792
    X2       -2.25632   0.00000   0.00000  -0.00011   0.00004  -2.25628
    Y2        2.61750  -0.00009   0.00000  -0.00367  -0.00373   2.61377
    Z2        3.31903   0.00005   0.00000   0.00493   0.00505   3.32409
    X3       -1.50542   0.00001   0.00000  -0.00051  -0.00055  -1.50598
    Y3       -3.20132   0.00001   0.00000   0.00147   0.00142  -3.19990
    Z3       -2.88340   0.00006   0.00000   0.00051   0.00061  -2.88279
    X4        2.42424  -0.00004   0.00000  -0.00469  -0.00464   2.41960
    Y4        3.95644  -0.00002   0.00000   0.00335   0.00333   3.95977
    Z4        1.13863  -0.00003   0.00000  -0.00120  -0.00126   1.13737
    X5       -2.26321  -0.00002   0.00000  -0.00036  -0.00016  -2.26338
    Y5       -2.60749   0.00004   0.00000   0.00098   0.00092  -2.60657
    Z5        3.32509  -0.00003   0.00000  -0.00053  -0.00041   3.32469
    X6       -1.49826   0.00002   0.00000   0.00111   0.00101  -1.49725
    Y6        3.20585   0.00005   0.00000  -0.00169  -0.00174   3.20411
    Z6       -2.87748  -0.00006   0.00000  -0.00565  -0.00556  -2.88303
    X7       -5.25171  -0.00002   0.00000   0.00015   0.00019  -5.25153
    Y7        0.00459   0.00001   0.00000   0.00279   0.00270   0.00729
    Z7       -0.20625  -0.00002   0.00000  -0.00047  -0.00023  -0.20648
    X8        1.66525   0.00007   0.00000   0.00374   0.00397   1.66922
    Y8       -0.00209   0.00004   0.00000   0.00049   0.00047  -0.00162
    Z8        4.76315   0.00001   0.00000  -0.00256  -0.00259   4.76057
    X9        3.27291   0.00000   0.00000   0.00177   0.00171   3.27462
    Y9       -0.00443   0.00001   0.00000  -0.00005  -0.00006  -0.00449
    Z9       -2.88315   0.00004   0.00000   0.00446   0.00438  -2.87877
         Item               Value     Threshold  Converged?
 Maximum Force            0.000087     0.000450     YES
 RMS     Force            0.000037     0.000300     YES
 Maximum Displacement     0.005557     0.001800     NO 
 RMS     Displacement     0.002565     0.001200     NO 
 Predicted change in Energy=-8.498973D-07
 GradGradGradGradGradGradGradGradGradGradGradGradGradGradGradGradGradGrad

 Leave Link  103 at Tue Mar  6 16:04:17 2018, MaxMem=   536870912 cpu:         0.0
 (Enter /share/apps//mg09/l9999.exe)
 1\1\GINC-COMPUTE-0-6\Freq\RPBE1PBE\def2TZVP\Bi4Ge3Sn2\RODRIGO\06-Mar-2
 018\0\\#P Geom=AllCheck Guess=TCheck SCRF=Check GenChk RPBE1PBE/def2TZ
 VP Freq\\01Final_coords.xyz_00\\0,1\Bi,1.2754478408,-2.096767394,0.602
 1556713\Ge,-1.1939906923,1.3851236906,1.7563555687\Sn,-0.7966365255,-1
 .694063177,-1.5258277731\Bi,1.2828509906,2.0936588593,0.6025386976\Ge,
 -1.1976411881,-1.3798253535,1.7595637301\Sn,-0.7928466168,1.6964642043
 ,-1.5226946757\Bi,-2.7790870794,0.0024278686,-0.1091404469\Ge,0.881213
 3225,-0.0011071118,2.5205522134\Bi,1.7319499483,-0.0023445864,-1.52569
 49853\\Version=ES64L-G09RevD.01\State=1-A\HF=-7517.8318486\RMSD=8.255e
 -09\RMSF=3.662e-05\ZeroPoint=0.0058883\Thermal=0.0233148\Dipole=0.1418
 23,0.0002555,-0.7166333\DipoleDeriv=-0.0226657,-0.0325151,-0.0088806,-
 0.0508288,0.0493775,-0.100651,-0.0125935,-0.0583934,-0.1646507,-0.0505
 85,-0.0763093,-0.0722435,-0.0404036,-0.0164531,0.0310326,0.0303919,-0.
 0570784,0.0306351,0.0313764,0.0880541,0.0681355,0.0587413,0.2052767,0.
 1141772,0.0336921,0.0943526,0.1605409,-0.0215274,0.0326052,-0.0081627,
 0.0509107,0.0500529,0.1007131,-0.0120325,0.0585259,-0.1633371,-0.04988
 47,0.0767088,-0.0720693,0.0404784,-0.0168714,-0.0304245,0.0310724,0.05
 77592,0.0320982,0.0309583,-0.08767,0.0676817,-0.0585021,0.2057674,-0.1
 143096,0.0336922,-0.0948303,0.159984,0.1625071,-0.000165,0.0086798,-0.
 0004319,-0.1274603,-0.0002557,-0.0433222,-0.0001981,-0.1562632,-0.0767
 481,-0.0002872,0.0559041,0.0001882,-0.1326533,-0.0002953,-0.0217317,-0
 .000203,0.0654052,-0.0034309,-0.0004215,-0.039045,-0.0001522,-0.217036
 4,0.0000133,-0.0391688,0.0000654,0.0355877\Polar=382.105007,0.0519271,
 379.0833728,5.4977093,0.0514492,372.8651627\PG=C01 [X(Bi4Ge3Sn2)]\NIma
 g=0\\0.06314546,-0.02230708,0.06420462,-0.00135894,-0.00805643,0.06651
 433,-0.00445678,0.00067752,0.00213202,0.07743662,0.00068446,-0.0055589
 5,-0.00377774,-0.00005844,0.05849966,0.00131815,-0.00022664,-0.0028202
 2,0.00331111,0.01387370,0.04401539,-0.01906484,0.00535388,-0.01821605,
 0.00224199,0.00205161,0.00440685,0.06360263,0.00652116,-0.00262938,0.0
 0154913,-0.00296994,-0.00459978,-0.00277931,-0.00187741,0.04333101,-0.
 01862860,0.00134305,-0.01945037,-0.00075576,-0.00100213,-0.00484398,0.
 00802323,0.01799627,0.04454741,0.00163523,0.00347409,0.00039169,-0.029
 43922,-0.01344732,0.01234331,-0.00002683,0.00094057,-0.00150716,0.0634
 2785,-0.00350162,-0.00587218,0.00022281,-0.01013920,-0.00420410,0.0010
 1420,-0.00071802,-0.00308449,0.00143314,0.02235175,0.06404894,0.000395
 54,-0.00021232,-0.00017819,0.01513359,0.00200081,-0.00595193,-0.005111
 58,-0.00422131,-0.00064924,-0.00131050,0.00807219,0.06640213,-0.029266
 61,0.01021430,0.01513081,-0.00220545,0.00214516,0.00359621,-0.00018115
 ,-0.00242932,0.00105713,-0.00445272,-0.00067818,0.00213776,0.07760994,
 0.01349982,-0.00426002,-0.00204930,-0.00217691,-0.02403634,0.00228506,
 -0.00275750,-0.00040744,-0.00133569,-0.00066990,-0.00556334,0.00376747
 ,0.00015649,0.05847965,0.01235422,-0.00106255,-0.00597753,0.00358039,-
 0.00221471,0.00137125,0.00152379,0.00049755,-0.00413234,0.00132958,0.0
 0021641,-0.00283444,0.00339245,-0.01390971,0.04390366,-0.00004501,0.00
 070749,-0.00509897,-0.00014966,0.00276632,0.00154550,0.00126083,-0.000
 11227,-0.00272445,-0.01915921,-0.00531963,-0.01823925,0.00225147,-0.00
 207028,0.00441446,0.06358089,-0.00094617,-0.00308818,0.00424128,0.0024
 2688,-0.00041626,-0.00047847,0.00009992,-0.00871092,0.00063117,-0.0064
 7681,-0.00258827,-0.00150138,0.00295761,-0.00461101,0.00276839,0.00188
 295,0.04337679,-0.00150542,-0.00141918,-0.00063879,0.00108450,0.001332
 95,-0.00428556,-0.00272746,-0.00064306,-0.00105923,-0.01864227,-0.0012
 7463,-0.01938910,-0.00075540,0.00101723,-0.00484392,0.00798257,-0.0180
 3464,0.04460434,-0.00245473,-0.00062646,-0.00063331,-0.01783798,-0.010
 63399,-0.01421759,-0.02273322,0.01425552,0.01157520,-0.00244518,0.0006
 3374,-0.00063979,-0.01778399,0.01061069,-0.01423574,-0.02279977,-0.014
 28121,0.01156869,0.09159428,0.00312332,-0.00009655,0.00307827,-0.01269
 108,-0.00963133,-0.01351323,0.01561018,-0.01350004,-0.01145794,-0.0030
 9160,-0.00008678,-0.00307286,0.01266209,-0.00963953,0.01351989,-0.0156
 4290,-0.01347432,0.01143983,0.00002831,0.05107525,0.00065025,0.0012507
 1,0.00021302,-0.01700252,-0.01397044,-0.01757340,0.01220620,-0.0112495
 2,-0.00975098,0.00066296,-0.00125383,0.00021091,-0.01700486,0.01398341
 ,-0.01763591,0.01220254,0.01123499,-0.00971908,0.00812362,-0.00000560,
 0.05810902,-0.00401360,0.00505460,0.00119579,-0.02317069,0.01539131,-0
 .01316744,-0.00177347,-0.00127956,-0.00027211,-0.00406859,-0.00511137,
 0.00126223,-0.02353200,-0.01549040,-0.01322568,-0.00176116,0.00127686,
 -0.00025371,-0.00338163,0.00000044,-0.00240699,0.06044743,0.00524639,-
 0.01961327,-0.01779635,0.01858616,-0.00983152,0.00440354,-0.00410391,-
 0.00016057,-0.00514761,-0.00531793,-0.01955507,0.01776608,-0.01869065,
 -0.00976981,-0.00439345,0.00411695,-0.00017583,0.00514649,0.00000458,-
 0.00494258,0.00000939,0.00015802,0.06400182,0.00115319,-0.01470107,-0.
 01636672,-0.00900316,0.00233887,-0.00556481,-0.00185049,0.00153430,-0.
 00496245,0.00120916,0.01467446,-0.01633755,-0.00906456,-0.00232595,-0.
 00550639,-0.00185811,-0.00152529,-0.00496580,-0.00046496,-0.00000035,-
 0.00280765,0.02182240,0.00000882,0.06033311,-0.00547912,-0.00254834,0.
 00645697,-0.00241883,0.00110089,0.00086391,-0.02332595,-0.01304875,0.0
 0323253,-0.00547134,0.00248252,0.00637200,-0.00243949,-0.00110201,0.00
 086653,-0.02317838,0.01305997,0.00324850,-0.00215779,0.00000124,0.0025
 6880,0.00125369,0.00000040,-0.00194348,0.06321720,-0.00232029,-0.02308
 610,0.02258834,0.00634501,-0.00022138,-0.00457886,-0.01365875,-0.01023
 839,-0.00246026,0.00223714,-0.02309472,-0.02259869,-0.00633749,-0.0001
 9217,0.00457818,0.01367137,-0.01031200,0.00243500,0.00000882,0.0002958
 8,0.00000089,0.00000009,0.00004682,-0.00000379,0.00005409,0.06680205,0
 .00562162,0.02308444,-0.02129553,0.00151983,0.00141869,-0.00434676,0.0
 0174552,-0.00268406,0.00030117,0.00552323,-0.02310476,-0.02127261,0.00
 151047,-0.00143252,-0.00434439,0.00177571,0.00266395,0.00029714,-0.001
 07613,0.00001199,-0.00104593,0.00504552,0.00000309,-0.00382175,-0.0216
 6577,0.00003918,0.05552866\\0.00000190,0.00004238,0.00002053,0.0000030
 8,0.00008667,-0.00005415,-0.00001097,-0.00001089,-0.00005579,0.0000424
 0,0.00001926,0.00002830,0.00001679,-0.00003665,0.00002999,-0.00001549,
 -0.00004535,0.00006093,0.00002245,-0.00000797,0.00002234,-0.00006513,-
 0.00004049,-0.00001374,0.00000497,-0.00000697,-0.00003842\\\@


 The lyf so short, the craft so long to lerne.
                             -- Chaucer
 Job cpu time:       0 days  4 hours 40 minutes 19.4 seconds.
 File lengths (MBytes):  RWF=    299 Int=      0 D2E=      0 Chk=     16 Scr=      1
 Normal termination of Gaussian 09 at Tue Mar  6 16:04:20 2018.
