 Entering Gaussian System, Link 0=/share/apps/mg09/g09
 Initial command:
 /share/apps//mg09/l1.exe "/state/partition1/gauss_tmp/Gau-12494.inp" -scrdir="/state/partition1/gauss_tmp/"
 Entering Link 1 = /share/apps//mg09/l1.exe PID=     12500.
  
 Copyright (c) 1988,1990,1992,1993,1995,1998,2003,2009,2013,
            Gaussian, Inc.  All Rights Reserved.
  
 This is part of the Gaussian(R) 09 program.  It is based on
 the Gaussian(R) 03 system (copyright 2003, Gaussian, Inc.),
 the Gaussian(R) 98 system (copyright 1998, Gaussian, Inc.),
 the Gaussian(R) 94 system (copyright 1995, Gaussian, Inc.),
 the Gaussian 92(TM) system (copyright 1992, Gaussian, Inc.),
 the Gaussian 90(TM) system (copyright 1990, Gaussian, Inc.),
 the Gaussian 88(TM) system (copyright 1988, Gaussian, Inc.),
 the Gaussian 86(TM) system (copyright 1986, Carnegie Mellon
 University), and the Gaussian 82(TM) system (copyright 1983,
 Carnegie Mellon University). Gaussian is a federally registered
 trademark of Gaussian, Inc.
  
 This software contains proprietary and confidential information,
 including trade secrets, belonging to Gaussian, Inc.
  
 This software is provided under written license and may be
 used, copied, transmitted, or stored only in accord with that
 written license.
  
 The following legend is applicable only to US Government
 contracts under FAR:
  
                    RESTRICTED RIGHTS LEGEND
  
 Use, reproduction and disclosure by the US Government is
 subject to restrictions as set forth in subparagraphs (a)
 and (c) of the Commercial Computer Software - Restricted
 Rights clause in FAR 52.227-19.
  
 Gaussian, Inc.
 340 Quinnipiac St., Bldg. 40, Wallingford CT 06492
  
  
 ---------------------------------------------------------------
 Warning -- This program may not be used in any manner that
 competes with the business of Gaussian, Inc. or will provide
 assistance to any competitor of Gaussian, Inc.  The licensee
 of this program is prohibited from giving any competitor of
 Gaussian, Inc. access to this program.  By using this program,
 the user acknowledges that Gaussian, Inc. is engaged in the
 business of creating and licensing software in the field of
 computational chemistry and represents and warrants to the
 licensee that it is not a competitor of Gaussian, Inc. and that
 it will not use this program in any manner prohibited above.
 ---------------------------------------------------------------
  

 Cite this work as:
 Gaussian 09, Revision D.01,
 M. J. Frisch, G. W. Trucks, H. B. Schlegel, G. E. Scuseria, 
 M. A. Robb, J. R. Cheeseman, G. Scalmani, V. Barone, B. Mennucci, 
 G. A. Petersson, H. Nakatsuji, M. Caricato, X. Li, H. P. Hratchian, 
 A. F. Izmaylov, J. Bloino, G. Zheng, J. L. Sonnenberg, M. Hada, 
 M. Ehara, K. Toyota, R. Fukuda, J. Hasegawa, M. Ishida, T. Nakajima, 
 Y. Honda, O. Kitao, H. Nakai, T. Vreven, J. A. Montgomery, Jr., 
 J. E. Peralta, F. Ogliaro, M. Bearpark, J. J. Heyd, E. Brothers, 
 K. N. Kudin, V. N. Staroverov, T. Keith, R. Kobayashi, J. Normand, 
 K. Raghavachari, A. Rendell, J. C. Burant, S. S. Iyengar, J. Tomasi, 
 M. Cossi, N. Rega, J. M. Millam, M. Klene, J. E. Knox, J. B. Cross, 
 V. Bakken, C. Adamo, J. Jaramillo, R. Gomperts, R. E. Stratmann, 
 O. Yazyev, A. J. Austin, R. Cammi, C. Pomelli, J. W. Ochterski, 
 R. L. Martin, K. Morokuma, V. G. Zakrzewski, G. A. Voth, 
 P. Salvador, J. J. Dannenberg, S. Dapprich, A. D. Daniels, 
 O. Farkas, J. B. Foresman, J. V. Ortiz, J. Cioslowski, 
 and D. J. Fox, Gaussian, Inc., Wallingford CT, 2013.
 
 ******************************************
 Gaussian 09:  ES64L-G09RevD.01 24-Apr-2013
                 6-Mar-2018 
 ******************************************
 %NProcShared=4
 Will use up to    4 processors via shared memory.
 %LindaWorkers=compute-0-4
 %chk=Isomer_19.chk
 %NProc=4
 Will use up to    4 processors via shared memory.
 %mem=4GB
 SetLPE:  input flags=" -vv -opt "Tsnet.Node.lindarsharg: ssh" "
 SetLPE:    new flags=" -vv -opt "Tsnet.Node.lindarsharg: ssh"  -nodelist 'compute-0-4.local'"
 Will use up to    1 processors via Linda.
 ----------------------------------------------------------------------
 #p PBE1PBE/Def2TZVP scf=(maxcycle=768) opt=(cartesian,maxcycle=512) fr
 eq
 ----------------------------------------------------------------------
 1/6=512,10=7,14=-1,18=10,26=3,38=1/1,3;
 2/12=2,17=6,18=5,29=2,40=1/2;
 3/5=44,7=101,11=2,16=1,25=1,30=1,71=1,74=-13/1,2,3;
 4//1;
 5/5=2,7=768,38=5/2;
 6/7=2,8=2,9=2,10=2,28=1/1;
 7/7=1,29=1/1,2,3,16;
 1/6=512,10=7,14=-1,18=10,26=3/3(2);
 2/29=1/2;
 99/12=1/99;
 2/29=1/2;
 3/5=44,7=101,11=2,16=1,25=1,30=1,71=1,74=-13/1,2,3;
 4/5=5,16=3,69=1/1;
 5/5=2,7=768,38=5/2;
 7/7=1/1,2,3,16;
 1/6=512,14=-1,18=10,26=3/3(-5);
 2/29=1/2;
 6/7=2,8=2,9=2,10=2,19=2,28=1/1;
 99/9=1,12=1/99;
 Leave Link    1 at Tue Mar  6 11:56:29 2018, MaxMem=   536870912 cpu:         0.5
 (Enter /share/apps//mg09/l101.exe)
 ---------------------
 01Final_coords.xyz_19
 ---------------------
 Symbolic Z-matrix:
 Charge =  0 Multiplicity = 1
 32                    0.7509    1.74859   1.67945 
 83                    1.98954   1.43152  -0.92747 
 32                   -0.71719   2.33033  -0.9617 
 83                    1.99941  -0.84641   1.1185 
 32                    0.05926   0.04434  -2.58645 
 83                    0.04814  -2.24084  -0.75436 
 50                   -0.88498  -1.1055    2.05963 
 83                   -2.27014  -0.26284  -0.86747 
 50                   -2.10765   1.65144   1.51147 
 
 NAtoms=      9 NQM=        9 NQMF=       0 NMMI=      0 NMMIF=      0
                NMic=       0 NMicF=      0.
                    Isotopes and Nuclear Properties:
 (Nuclear quadrupole moments (NQMom) in fm**2, nuclear magnetic moments (NMagM)
  in nuclear magnetons)

  Atom         1           2           3           4           5           6           7           8           9
 IAtWgt=          74         209          74         209          74         209         118         209         118
 AtmWgt=  73.9211788 208.9804000  73.9211788 208.9804000  73.9211788 208.9804000 117.9018000 208.9804000 117.9018000
 NucSpn=           0           9           0           9           0           9           0           9           0
 AtZEff=   0.0000000   0.0000000   0.0000000   0.0000000   0.0000000   0.0000000   0.0000000   0.0000000   0.0000000
 NQMom=    0.0000000 -51.6000000   0.0000000 -51.6000000   0.0000000 -51.6000000   0.0000000 -51.6000000   0.0000000
 NMagM=    0.0000000   4.1106000   0.0000000   4.1106000   0.0000000   4.1106000   0.0000000   4.1106000   0.0000000
 AtZNuc=  32.0000000  83.0000000  32.0000000  83.0000000  32.0000000  83.0000000  50.0000000  83.0000000  50.0000000
 Leave Link  101 at Tue Mar  6 11:56:38 2018, MaxMem=   536870912 cpu:         0.3
 (Enter /share/apps//mg09/l103.exe)

 GradGradGradGradGradGradGradGradGradGradGradGradGradGradGradGradGradGrad
 Berny optimization.
 Initialization pass.
 No Z-matrix variables, so optimization will use Cartesian coordinates.
 Trust Radius=3.00D-01 FncErr=1.00D-07 GrdErr=1.00D-06
 Number of steps in this run=    100 maximum allowed number of steps=    100.
 GradGradGradGradGradGradGradGradGradGradGradGradGradGradGradGradGradGrad

 Leave Link  103 at Tue Mar  6 11:56:56 2018, MaxMem=   536870912 cpu:         0.1
 (Enter /share/apps//mg09/l202.exe)
 ---------------------------------------------------------------------------------------------------
                            Z-MATRIX (ANGSTROMS AND DEGREES)
   CD    Cent   Atom    N1       Length/X        N2       Alpha/Y        N3        Beta/Z          J
 ---------------------------------------------------------------------------------------------------
      1      1  Ge       0   0.750897          1.748588          1.679453
      2      2  Bi       0   1.989535          1.431520         -0.927473
      3      3  Ge       0  -0.717185          2.330325         -0.961699
      4      4  Bi       0   1.999409         -0.846414          1.118501
      5      5  Ge       0   0.059264          0.044341         -2.586445
      6      6  Bi       0   0.048141         -2.240836         -0.754363
      7      7  Sn       0  -0.884975         -1.105504          2.059627
      8      8  Bi       0  -2.270143         -0.262838         -0.867470
      9      9  Sn       0  -2.107651          1.651442          1.511470
 ---------------------------------------------------------------------------------------------------
                         Z-Matrix orientation:                         
 ---------------------------------------------------------------------
 Center     Atomic      Atomic             Coordinates (Angstroms)
 Number     Number       Type             X           Y           Z
 ---------------------------------------------------------------------
      1         32           0        0.750897    1.748588    1.679453
      2         83           0        1.989535    1.431520   -0.927473
      3         32           0       -0.717185    2.330325   -0.961699
      4         83           0        1.999409   -0.846414    1.118501
      5         32           0        0.059264    0.044341   -2.586445
      6         83           0        0.048141   -2.240836   -0.754363
      7         50           0       -0.884975   -1.105504    2.059627
      8         83           0       -2.270143   -0.262838   -0.867470
      9         50           0       -2.107651    1.651442    1.511470
 ---------------------------------------------------------------------
                    Distance matrix (angstroms):
                    1          2          3          4          5
     1  Ge   0.000000
     2  Bi   2.903587   0.000000
     3  Ge   3.077234   2.852254   0.000000
     4  Bi   2.933852   3.061877   4.668917   0.000000
     5  Ge   4.645503   2.898689   2.910051   4.276007   0.000000
     6  Bi   4.725762   4.157545   4.639421   3.042939   2.928939
     7  Sn   3.311563   4.860254   4.578371   3.045081   4.878495
     8  Bi   4.433885   4.584682   3.024079   4.744862   2.911249
     9  Sn   2.865127   4.773232   2.917335   4.823033   4.906241
                    6          7          8          9
     6  Bi   0.000000
     7  Sn   3.174622   0.000000
     8  Bi   3.049543   3.346143   0.000000
     9  Sn   4.993122   3.065316   3.057814   0.000000
 Stoichiometry    Bi4Ge3Sn2
 Framework group  C1[X(Bi4Ge3Sn2)]
 Deg. of freedom    21
 Full point group                 C1      NOp   1
 Largest Abelian subgroup         C1      NOp   1
 Largest concise Abelian subgroup C1      NOp   1
                         Standard orientation:                         
 ---------------------------------------------------------------------
 Center     Atomic      Atomic             Coordinates (Angstroms)
 Number     Number       Type             X           Y           Z
 ---------------------------------------------------------------------
      1         32           0       -0.750897   -1.748588    1.679453
      2         83           0       -1.989535   -1.431520   -0.927473
      3         32           0        0.717185   -2.330325   -0.961699
      4         83           0       -1.999409    0.846414    1.118501
      5         32           0       -0.059264   -0.044341   -2.586445
      6         83           0       -0.048140    2.240836   -0.754363
      7         50           0        0.884975    1.105504    2.059627
      8         83           0        2.270143    0.262837   -0.867470
      9         50           0        2.107651   -1.651443    1.511470
 ---------------------------------------------------------------------
 Rotational constants (GHZ):      0.1012608      0.0887496      0.0818996
 Leave Link  202 at Tue Mar  6 11:56:58 2018, MaxMem=   536870912 cpu:         0.0
 (Enter /share/apps//mg09/l301.exe)
 Standard basis: def2TZVP (5D, 7F)
 Ernie: Thresh=  0.10000D-02 Tol=  0.10000D-05 Strict=F.
 There are   519 symmetry adapted cartesian basis functions of A   symmetry.
 There are   444 symmetry adapted basis functions of A   symmetry.
   444 basis functions,   963 primitive gaussians,   519 cartesian basis functions
   116 alpha electrons      116 beta electrons
       nuclear repulsion energy      3551.2484558000 Hartrees.
 IExCor= 1009 DFT=T Ex+Corr=PBE1PBE ExCW=0 ScaHFX=  0.250000
 ScaDFX=  0.750000  0.750000  1.000000  1.000000 ScalE2=  1.000000  1.000000
 IRadAn=      0 IRanWt=     -1 IRanGd=            0 ICorTp=0 IEmpDi=  4
 NAtoms=    9 NActive=    9 NUniq=    9 SFac= 1.00D+00 NAtFMM=   60 NAOKFM=F Big=F
 Integral buffers will be    131072 words long.
 Raffenetti 2 integral format.
 Two-electron integral symmetry is turned on.
 Leave Link  301 at Tue Mar  6 11:57:14 2018, MaxMem=   536870912 cpu:         0.3
 (Enter /share/apps//mg09/l302.exe)
 NPDir=0 NMtPBC=     1 NCelOv=     1 NCel=       1 NClECP=     1 NCelD=      1
         NCelK=      1 NCelE2=     1 NClLst=     1 CellRange=     0.0.
 One-electron integrals computed using PRISM.
   1 Symmetry operations used in ECPInt.
 ECPInt:  NShTT=   10440 NPrTT=   41973 LenC2=    9672 LenP2D=   27462.
 LDataN:  DoStor=T MaxTD1= 8 Len=  415
 NBasis=   444 RedAO= T EigKep=  1.10D-03  NBF=   444
 NBsUse=   444 1.00D-06 EigRej= -1.00D+00 NBFU=   444
 Precomputing XC quadrature grid using
 IXCGrd= 4 IRadAn=           0 IRanWt=          -1 IRanGd=           0 AccXCQ= 0.00D+00.
 Defaulting to unpruned grid for atomic number  50.
 Defaulting to unpruned grid for atomic number  83.
 Defaulting to unpruned grid for atomic number  83.
 Generated NRdTot=       0 NPtTot=           0 NUsed=           0 NTot=          32
 NSgBfM=   501   501   501   501   501 MxSgAt=     9 MxSgA2=     9.
 Leave Link  302 at Tue Mar  6 11:57:30 2018, MaxMem=   536870912 cpu:        25.6
 (Enter /share/apps//mg09/l303.exe)
 DipDrv:  MaxL=1.
 Leave Link  303 at Tue Mar  6 11:57:39 2018, MaxMem=   536870912 cpu:         0.3
 (Enter /share/apps//mg09/l401.exe)
 ExpMin= 4.62D-02 ExpMax= 4.66D+05 ExpMxC= 4.50D+03 IAcc=2 IRadAn=         4 AccDes= 0.00D+00
 Harris functional with IExCor= 1009 and IRadAn=       4 diagonalized for initial guess.
 HarFok:  IExCor= 1009 AccDes= 0.00D+00 IRadAn=         4 IDoV= 1 UseB2=F ITyADJ=14
 ICtDFT=  3500011 ScaDFX=  1.000000  1.000000  1.000000  1.000000
 Defaulting to unpruned grid for atomic number  83.
 Defaulting to unpruned grid for atomic number  83.
 Defaulting to unpruned grid for atomic number  83.
 Defaulting to unpruned grid for atomic number  83.
 FoFCou: FMM=F IPFlag=           0 FMFlag=      100000 FMFlg1=           0
         NFxFlg=           0 DoJE=T BraDBF=F KetDBF=T FulRan=T
         wScrn=  0.000000 ICntrl=     500 IOpCl=  0 I1Cent=   200000004 NGrid=           0
         NMat0=    1 NMatS0=      1 NMatT0=    0 NMatD0=    1 NMtDS0=    0 NMtDT0=    0
 Petite list used in FoFCou.
 Harris En= -7518.60632228283    
 JPrj=0 DoOrth=F DoCkMO=F.
 Leave Link  401 at Tue Mar  6 11:57:48 2018, MaxMem=   536870912 cpu:        10.0
 (Enter /share/apps//mg09/l502.exe)
 Closed shell SCF:
 Using DIIS extrapolation, IDIIS=  1040.
 Integral symmetry usage will be decided dynamically.
 IVT=     1410107 IEndB=     1410107 NGot=   536870912 MDV=   536322046
 LenX=   536322046 LenY=   536052166
 Requested convergence on RMS density matrix=1.00D-08 within 768 cycles.
 Requested convergence on MAX density matrix=1.00D-06.
 Requested convergence on             energy=1.00D-06.
 No special actions if energy rises.
 Fock matrices will be formed incrementally for  20 cycles.

 Cycle   1  Pass 1  IDiag  1:
 FoFJK:  IHMeth= 1 ICntrl=       0 DoSepK=F KAlg= 0 I1Cent=   0 FoldK=F
 IRaf= 880000000 NMat=   1 IRICut=       1 DoRegI=T DoRafI=F ISym2E= 0.
 FoFCou: FMM=F IPFlag=           0 FMFlag=      100000 FMFlg1=           0
         NFxFlg=           0 DoJE=F BraDBF=F KetDBF=F FulRan=T
         wScrn=  0.000000 ICntrl=       0 IOpCl=  0 I1Cent=           0 NGrid=           0
         NMat0=    1 NMatS0=      1 NMatT0=    0 NMatD0=    1 NMtDS0=    0 NMtDT0=    0
 Symmetry not used in FoFCou.
 Defaulting to unpruned grid for atomic number  83.
 Defaulting to unpruned grid for atomic number  83.
 Defaulting to unpruned grid for atomic number  83.
 Defaulting to unpruned grid for atomic number  83.
 E= -7517.24441341509    
 DIIS: error= 2.33D-02 at cycle   1 NSaved=   1.
 NSaved= 1 IEnMin= 1 EnMin= -7517.24441341509     IErMin= 1 ErrMin= 2.33D-02
 ErrMax= 2.33D-02  0.00D+00 EMaxC= 1.00D-01 BMatC= 1.47D+00 BMatP= 1.47D+00
 IDIUse=3 WtCom= 7.67D-01 WtEn= 2.33D-01
 Coeff-Com:  0.100D+01
 Coeff-En:   0.100D+01
 Coeff:      0.100D+01
 Gap=     0.128 Goal=   None    Shift=    0.000
 GapD=    0.128 DampG=1.000 DampE=0.500 DampFc=0.5000 IDamp=-1.
 Damping current iteration by 5.00D-01
 RMSDP=5.27D-03 MaxDP=2.25D-01              OVMax= 6.98D-01

 Cycle   2  Pass 1  IDiag  1:
 RMSU=  2.63D-03    CP:  1.00D+00
 E= -7517.14032663211     Delta-E=        0.104086782972 Rises=F Damp=T
 DIIS: error= 1.26D-02 at cycle   2 NSaved=   2.
 NSaved= 2 IEnMin= 1 EnMin= -7517.24441341509     IErMin= 2 ErrMin= 1.26D-02
 ErrMax= 1.26D-02  0.00D+00 EMaxC= 1.00D-01 BMatC= 2.65D-01 BMatP= 1.47D+00
 IDIUse=3 WtCom= 8.74D-01 WtEn= 1.26D-01
 Coeff-Com:  0.137D+00 0.863D+00
 Coeff-En:   0.563D+00 0.437D+00
 Coeff:      0.191D+00 0.809D+00
 Gap=     0.112 Goal=   None    Shift=    0.000
 RMSDP=3.79D-03 MaxDP=1.74D-01 DE= 1.04D-01 OVMax= 6.18D-01

 Cycle   3  Pass 1  IDiag  1:
 RMSU=  3.10D-03    CP:  1.01D+00  1.73D-01
 E= -7515.75606373306     Delta-E=        1.384262899053 Rises=F Damp=F
 DIIS: error= 3.55D-02 at cycle   3 NSaved=   3.
 NSaved= 3 IEnMin= 1 EnMin= -7517.24441341509     IErMin= 2 ErrMin= 1.26D-02
 ErrMax= 3.55D-02  0.00D+00 EMaxC= 1.00D-01 BMatC= 1.58D+00 BMatP= 2.65D-01
 IDIUse=2 WtCom= 0.00D+00 WtEn= 1.00D+00
 EnCoef did    15 forward-backward iterations
 Coeff-En:   0.427D+00 0.486D+00 0.864D-01
 Coeff:      0.427D+00 0.486D+00 0.864D-01
 Gap=     0.156 Goal=   None    Shift=    0.000
 RMSDP=3.21D-03 MaxDP=1.34D-01 DE= 1.38D+00 OVMax= 3.74D-01

 Cycle   4  Pass 1  IDiag  1:
 RMSU=  1.29D-03    CP:  1.01D+00  8.66D-01  2.56D-01
 E= -7517.74356568580     Delta-E=       -1.987501952741 Rises=F Damp=F
 DIIS: error= 6.59D-03 at cycle   4 NSaved=   4.
 NSaved= 4 IEnMin= 4 EnMin= -7517.74356568580     IErMin= 4 ErrMin= 6.59D-03
 ErrMax= 6.59D-03  0.00D+00 EMaxC= 1.00D-01 BMatC= 1.71D-01 BMatP= 2.65D-01
 IDIUse=3 WtCom= 9.34D-01 WtEn= 6.59D-02
 Coeff-Com:  0.303D+00-0.153D+00-0.732D-01 0.923D+00
 Coeff-En:   0.341D-01 0.000D+00 0.000D+00 0.966D+00
 Coeff:      0.286D+00-0.143D+00-0.683D-01 0.926D+00
 Gap=     0.116 Goal=   None    Shift=    0.000
 RMSDP=9.53D-04 MaxDP=5.66D-02 DE=-1.99D+00 OVMax= 5.28D-02

 Cycle   5  Pass 1  IDiag  1:
 RMSU=  4.72D-04    CP:  1.00D+00  6.74D-01  7.80D-02  7.57D-01
 E= -7517.79198696537     Delta-E=       -0.048421279569 Rises=F Damp=F
 DIIS: error= 2.72D-03 at cycle   5 NSaved=   5.
 NSaved= 5 IEnMin= 5 EnMin= -7517.79198696537     IErMin= 5 ErrMin= 2.72D-03
 ErrMax= 2.72D-03  0.00D+00 EMaxC= 1.00D-01 BMatC= 2.30D-02 BMatP= 1.71D-01
 IDIUse=3 WtCom= 9.73D-01 WtEn= 2.72D-02
 Coeff-Com:  0.110D+00-0.107D+00-0.550D-02 0.430D+00 0.572D+00
 Coeff-En:   0.000D+00 0.000D+00 0.000D+00 0.129D+00 0.871D+00
 Coeff:      0.107D+00-0.104D+00-0.535D-02 0.421D+00 0.580D+00
 Gap=     0.127 Goal=   None    Shift=    0.000
 RMSDP=4.88D-04 MaxDP=2.83D-02 DE=-4.84D-02 OVMax= 4.99D-02

 Cycle   6  Pass 1  IDiag  1:
 RMSU=  3.22D-04    CP:  1.00D+00  6.29D-01  1.49D-01  8.16D-01  4.63D-01
 E= -7517.80714736075     Delta-E=       -0.015160395382 Rises=F Damp=F
 DIIS: error= 1.99D-03 at cycle   6 NSaved=   6.
 NSaved= 6 IEnMin= 6 EnMin= -7517.80714736075     IErMin= 6 ErrMin= 1.99D-03
 ErrMax= 1.99D-03  0.00D+00 EMaxC= 1.00D-01 BMatC= 6.50D-03 BMatP= 2.30D-02
 IDIUse=3 WtCom= 9.80D-01 WtEn= 1.99D-02
 Coeff-Com:  0.437D-01-0.673D-01 0.518D-02 0.201D+00 0.412D+00 0.405D+00
 Coeff-En:   0.000D+00 0.000D+00 0.000D+00 0.000D+00 0.246D+00 0.754D+00
 Coeff:      0.428D-01-0.660D-01 0.508D-02 0.197D+00 0.409D+00 0.412D+00
 Gap=     0.123 Goal=   None    Shift=    0.000
 RMSDP=2.61D-04 MaxDP=1.32D-02 DE=-1.52D-02 OVMax= 2.76D-02

 Cycle   7  Pass 1  IDiag  1:
 RMSU=  1.35D-04    CP:  1.00D+00  6.36D-01  1.41D-01  8.00D-01  6.68D-01
                    CP:  3.91D-01
 E= -7517.81196384159     Delta-E=       -0.004816480840 Rises=F Damp=F
 DIIS: error= 9.06D-04 at cycle   7 NSaved=   7.
 NSaved= 7 IEnMin= 7 EnMin= -7517.81196384159     IErMin= 7 ErrMin= 9.06D-04
 ErrMax= 9.06D-04  0.00D+00 EMaxC= 1.00D-01 BMatC= 1.41D-03 BMatP= 6.50D-03
 IDIUse=3 WtCom= 9.91D-01 WtEn= 9.06D-03
 Coeff-Com:  0.242D-01-0.449D-01 0.384D-02 0.112D+00 0.241D+00 0.321D+00
 Coeff-Com:  0.343D+00
 Coeff-En:   0.000D+00 0.000D+00 0.000D+00 0.000D+00 0.000D+00 0.259D+00
 Coeff-En:   0.741D+00
 Coeff:      0.240D-01-0.445D-01 0.380D-02 0.111D+00 0.238D+00 0.321D+00
 Coeff:      0.347D+00
 Gap=     0.123 Goal=   None    Shift=    0.000
 RMSDP=1.13D-04 MaxDP=4.22D-03 DE=-4.82D-03 OVMax= 1.45D-02

 Cycle   8  Pass 1  IDiag  1:
 RMSU=  4.28D-05    CP:  1.00D+00  6.37D-01  1.43D-01  8.02D-01  6.32D-01
                    CP:  5.05D-01  2.85D-01
 E= -7517.81357261640     Delta-E=       -0.001608774812 Rises=F Damp=F
 DIIS: error= 2.88D-04 at cycle   8 NSaved=   8.
 NSaved= 8 IEnMin= 8 EnMin= -7517.81357261640     IErMin= 8 ErrMin= 2.88D-04
 ErrMax= 2.88D-04  0.00D+00 EMaxC= 1.00D-01 BMatC= 1.78D-04 BMatP= 1.41D-03
 IDIUse=3 WtCom= 9.97D-01 WtEn= 2.88D-03
 Coeff-Com:  0.106D-01-0.205D-01 0.302D-02 0.443D-01 0.885D-01 0.160D+00
 Coeff-Com:  0.261D+00 0.453D+00
 Coeff-En:   0.000D+00 0.000D+00 0.000D+00 0.000D+00 0.000D+00 0.000D+00
 Coeff-En:   0.100D+00 0.900D+00
 Coeff:      0.106D-01-0.204D-01 0.301D-02 0.442D-01 0.882D-01 0.160D+00
 Coeff:      0.260D+00 0.454D+00
 Gap=     0.122 Goal=   None    Shift=    0.000
 RMSDP=3.53D-05 MaxDP=1.25D-03 DE=-1.61D-03 OVMax= 4.47D-03

 Cycle   9  Pass 1  IDiag  1:
 RMSU=  1.48D-05    CP:  1.00D+00  6.35D-01  1.48D-01  8.05D-01  6.24D-01
                    CP:  5.00D-01  4.50D-01  7.02D-01
 E= -7517.81378537666     Delta-E=       -0.000212760260 Rises=F Damp=F
 DIIS: error= 7.52D-05 at cycle   9 NSaved=   9.
 NSaved= 9 IEnMin= 9 EnMin= -7517.81378537666     IErMin= 9 ErrMin= 7.52D-05
 ErrMax= 7.52D-05  0.00D+00 EMaxC= 1.00D-01 BMatC= 9.34D-06 BMatP= 1.78D-04
 IDIUse=1 WtCom= 1.00D+00 WtEn= 0.00D+00
 Coeff-Com:  0.303D-02-0.631D-02 0.244D-03 0.850D-02 0.546D-02 0.337D-01
 Coeff-Com:  0.779D-01 0.221D+00 0.656D+00
 Coeff:      0.303D-02-0.631D-02 0.244D-03 0.850D-02 0.546D-02 0.337D-01
 Coeff:      0.779D-01 0.221D+00 0.656D+00
 Gap=     0.123 Goal=   None    Shift=    0.000
 RMSDP=1.22D-05 MaxDP=6.69D-04 DE=-2.13D-04 OVMax= 1.54D-03

 Cycle  10  Pass 1  IDiag  1:
 RMSU=  9.40D-06    CP:  1.00D+00  6.34D-01  1.48D-01  8.04D-01  6.18D-01
                    CP:  5.09D-01  4.55D-01  7.32D-01  6.24D-01
 E= -7517.81378757731     Delta-E=       -0.000002200648 Rises=F Damp=F
 DIIS: error= 6.68D-05 at cycle  10 NSaved=  10.
 NSaved=10 IEnMin=10 EnMin= -7517.81378757731     IErMin=10 ErrMin= 6.68D-05
 ErrMax= 6.68D-05  0.00D+00 EMaxC= 1.00D-01 BMatC= 5.99D-06 BMatP= 9.34D-06
 IDIUse=1 WtCom= 1.00D+00 WtEn= 0.00D+00
 Coeff-Com:  0.483D-03-0.116D-02 0.639D-04-0.110D-02-0.102D-01-0.295D-03
 Coeff-Com:  0.174D-01 0.970D-01 0.506D+00 0.392D+00
 Coeff:      0.483D-03-0.116D-02 0.639D-04-0.110D-02-0.102D-01-0.295D-03
 Coeff:      0.174D-01 0.970D-01 0.506D+00 0.392D+00
 Gap=     0.123 Goal=   None    Shift=    0.000
 RMSDP=8.27D-06 MaxDP=3.60D-04 DE=-2.20D-06 OVMax= 1.07D-03

 Cycle  11  Pass 1  IDiag  1:
 RMSU=  4.55D-06    CP:  1.00D+00  6.34D-01  1.49D-01  8.04D-01  6.19D-01
                    CP:  5.11D-01  4.56D-01  7.44D-01  8.38D-01  3.83D-01
 E= -7517.81379388494     Delta-E=       -0.000006307628 Rises=F Damp=F
 DIIS: error= 3.43D-05 at cycle  11 NSaved=  11.
 NSaved=11 IEnMin=11 EnMin= -7517.81379388494     IErMin=11 ErrMin= 3.43D-05
 ErrMax= 3.43D-05  0.00D+00 EMaxC= 1.00D-01 BMatC= 1.18D-06 BMatP= 5.99D-06
 IDIUse=1 WtCom= 1.00D+00 WtEn= 0.00D+00
 Coeff-Com: -0.168D-03 0.258D-03 0.102D-03-0.240D-02-0.910D-02-0.661D-02
 Coeff-Com: -0.840D-04 0.413D-01 0.298D+00 0.315D+00 0.363D+00
 Coeff:     -0.168D-03 0.258D-03 0.102D-03-0.240D-02-0.910D-02-0.661D-02
 Coeff:     -0.840D-04 0.413D-01 0.298D+00 0.315D+00 0.363D+00
 Gap=     0.122 Goal=   None    Shift=    0.000
 RMSDP=3.21D-06 MaxDP=1.93D-04 DE=-6.31D-06 OVMax= 4.04D-04

 Cycle  12  Pass 1  IDiag  1:
 RMSU=  1.37D-06    CP:  1.00D+00  6.34D-01  1.49D-01  8.04D-01  6.19D-01
                    CP:  5.10D-01  4.56D-01  7.47D-01  8.22D-01  5.20D-01
                    CP:  4.43D-01
 E= -7517.81379538507     Delta-E=       -0.000001500131 Rises=F Damp=F
 DIIS: error= 3.96D-06 at cycle  12 NSaved=  12.
 NSaved=12 IEnMin=12 EnMin= -7517.81379538507     IErMin=12 ErrMin= 3.96D-06
 ErrMax= 3.96D-06  0.00D+00 EMaxC= 1.00D-01 BMatC= 4.02D-08 BMatP= 1.18D-06
 IDIUse=1 WtCom= 1.00D+00 WtEn= 0.00D+00
 Coeff-Com: -0.747D-04 0.126D-03 0.336D-04-0.752D-03-0.268D-02-0.287D-02
 Coeff-Com: -0.189D-02 0.104D-01 0.892D-01 0.113D+00 0.195D+00 0.600D+00
 Coeff:     -0.747D-04 0.126D-03 0.336D-04-0.752D-03-0.268D-02-0.287D-02
 Coeff:     -0.189D-02 0.104D-01 0.892D-01 0.113D+00 0.195D+00 0.600D+00
 Gap=     0.122 Goal=   None    Shift=    0.000
 RMSDP=6.90D-07 MaxDP=4.97D-05 DE=-1.50D-06 OVMax= 8.07D-05

 Cycle  13  Pass 1  IDiag  1:
 RMSU=  4.41D-07    CP:  1.00D+00  6.34D-01  1.49D-01  8.04D-01  6.19D-01
                    CP:  5.09D-01  4.55D-01  7.49D-01  8.24D-01  5.05D-01
                    CP:  4.94D-01  8.39D-01
 E= -7517.81379542477     Delta-E=       -0.000000039699 Rises=F Damp=F
 DIIS: error= 1.08D-06 at cycle  13 NSaved=  13.
 NSaved=13 IEnMin=13 EnMin= -7517.81379542477     IErMin=13 ErrMin= 1.08D-06
 ErrMax= 1.08D-06  0.00D+00 EMaxC= 1.00D-01 BMatC= 4.20D-09 BMatP= 4.02D-08
 IDIUse=1 WtCom= 1.00D+00 WtEn= 0.00D+00
 Coeff-Com: -0.174D-04 0.356D-04 0.294D-05-0.150D-03-0.556D-03-0.809D-03
 Coeff-Com: -0.977D-03 0.988D-03 0.148D-01 0.247D-01 0.598D-01 0.298D+00
 Coeff-Com:  0.604D+00
 Coeff:     -0.174D-04 0.356D-04 0.294D-05-0.150D-03-0.556D-03-0.809D-03
 Coeff:     -0.977D-03 0.988D-03 0.148D-01 0.247D-01 0.598D-01 0.298D+00
 Coeff:      0.604D+00
 Gap=     0.122 Goal=   None    Shift=    0.000
 RMSDP=2.27D-07 MaxDP=1.12D-05 DE=-3.97D-08 OVMax= 2.34D-05

 Cycle  14  Pass 1  IDiag  1:
 RMSU=  1.58D-07    CP:  1.00D+00  6.34D-01  1.49D-01  8.04D-01  6.19D-01
                    CP:  5.09D-01  4.55D-01  7.49D-01  8.26D-01  5.12D-01
                    CP:  5.00D-01  8.94D-01  7.96D-01
 E= -7517.81379542917     Delta-E=       -0.000000004400 Rises=F Damp=F
 DIIS: error= 7.67D-07 at cycle  14 NSaved=  14.
 NSaved=14 IEnMin=14 EnMin= -7517.81379542917     IErMin=14 ErrMin= 7.67D-07
 ErrMax= 7.67D-07  0.00D+00 EMaxC= 1.00D-01 BMatC= 7.10D-10 BMatP= 4.20D-09
 IDIUse=1 WtCom= 1.00D+00 WtEn= 0.00D+00
 Coeff-Com: -0.577D-05 0.158D-04-0.224D-06-0.140D-04-0.343D-04-0.166D-03
 Coeff-Com: -0.403D-03-0.894D-03-0.194D-02 0.154D-02 0.146D-01 0.105D+00
 Coeff-Com:  0.344D+00 0.538D+00
 Coeff:     -0.577D-05 0.158D-04-0.224D-06-0.140D-04-0.343D-04-0.166D-03
 Coeff:     -0.403D-03-0.894D-03-0.194D-02 0.154D-02 0.146D-01 0.105D+00
 Coeff:      0.344D+00 0.538D+00
 Gap=     0.122 Goal=   None    Shift=    0.000
 RMSDP=8.53D-08 MaxDP=4.68D-06 DE=-4.40D-09 OVMax= 8.86D-06

 Cycle  15  Pass 1  IDiag  1:
 RMSU=  4.86D-08    CP:  1.00D+00  6.34D-01  1.49D-01  8.04D-01  6.19D-01
                    CP:  5.09D-01  4.55D-01  7.49D-01  8.25D-01  5.12D-01
                    CP:  5.04D-01  9.02D-01  8.93D-01  7.31D-01
 E= -7517.81379542971     Delta-E=       -0.000000000542 Rises=F Damp=F
 DIIS: error= 1.72D-07 at cycle  15 NSaved=  15.
 NSaved=15 IEnMin=15 EnMin= -7517.81379542971     IErMin=15 ErrMin= 1.72D-07
 ErrMax= 1.72D-07  0.00D+00 EMaxC= 1.00D-01 BMatC= 5.76D-11 BMatP= 7.10D-10
 IDIUse=1 WtCom= 1.00D+00 WtEn= 0.00D+00
 Coeff-Com: -0.526D-06 0.304D-05-0.111D-05 0.138D-04 0.625D-04 0.398D-04
 Coeff-Com: -0.386D-04-0.568D-03-0.283D-02-0.304D-02-0.922D-03 0.139D-01
 Coeff-Com:  0.921D-01 0.263D+00 0.638D+00
 Coeff:     -0.526D-06 0.304D-05-0.111D-05 0.138D-04 0.625D-04 0.398D-04
 Coeff:     -0.386D-04-0.568D-03-0.283D-02-0.304D-02-0.922D-03 0.139D-01
 Coeff:      0.921D-01 0.263D+00 0.638D+00
 Gap=     0.122 Goal=   None    Shift=    0.000
 RMSDP=2.86D-08 MaxDP=1.43D-06 DE=-5.42D-10 OVMax= 3.55D-06

 Cycle  16  Pass 1  IDiag  1:
 RMSU=  1.59D-08    CP:  1.00D+00  6.34D-01  1.49D-01  8.04D-01  6.19D-01
                    CP:  5.09D-01  4.55D-01  7.49D-01  8.26D-01  5.13D-01
                    CP:  5.06D-01  9.09D-01  8.95D-01  8.22D-01  8.82D-01
 E= -7517.81379542992     Delta-E=       -0.000000000211 Rises=F Damp=F
 DIIS: error= 5.37D-08 at cycle  16 NSaved=  16.
 NSaved=16 IEnMin=16 EnMin= -7517.81379542992     IErMin=16 ErrMin= 5.37D-08
 ErrMax= 5.37D-08  0.00D+00 EMaxC= 1.00D-01 BMatC= 6.45D-12 BMatP= 5.76D-11
 IDIUse=1 WtCom= 1.00D+00 WtEn= 0.00D+00
 Coeff-Com:  0.177D-06-0.406D-07-0.219D-06 0.937D-05 0.429D-04 0.445D-04
 Coeff-Com:  0.146D-04-0.175D-03-0.116D-02-0.179D-02-0.215D-02-0.417D-02
 Coeff-Com:  0.294D-02 0.556D-01 0.295D+00 0.656D+00
 Coeff:      0.177D-06-0.406D-07-0.219D-06 0.937D-05 0.429D-04 0.445D-04
 Coeff:      0.146D-04-0.175D-03-0.116D-02-0.179D-02-0.215D-02-0.417D-02
 Coeff:      0.294D-02 0.556D-01 0.295D+00 0.656D+00
 Gap=     0.122 Goal=   None    Shift=    0.000
 RMSDP=1.10D-08 MaxDP=5.47D-07 DE=-2.11D-10 OVMax= 1.51D-06

 Cycle  17  Pass 1  IDiag  1:
 RMSU=  5.37D-09    CP:  1.00D+00  6.34D-01  1.49D-01  8.04D-01  6.19D-01
                    CP:  5.09D-01  4.55D-01  7.49D-01  8.26D-01  5.12D-01
                    CP:  5.06D-01  9.13D-01  9.04D-01  8.28D-01  9.46D-01
                    CP:  9.73D-01
 E= -7517.81379542968     Delta-E=        0.000000000240 Rises=F Damp=F
 DIIS: error= 1.43D-08 at cycle  17 NSaved=  17.
 NSaved=17 IEnMin=16 EnMin= -7517.81379542992     IErMin=17 ErrMin= 1.43D-08
 ErrMax= 1.43D-08  0.00D+00 EMaxC= 1.00D-01 BMatC= 4.74D-13 BMatP= 6.45D-12
 IDIUse=1 WtCom= 1.00D+00 WtEn= 0.00D+00
 Coeff-Com:  0.109D-06-0.261D-06-0.351D-07 0.222D-05 0.101D-04 0.143D-04
 Coeff-Com:  0.859D-05-0.203D-04-0.208D-03-0.447D-03-0.813D-03-0.314D-02
 Coeff-Com: -0.676D-02 0.591D-03 0.680D-01 0.278D+00 0.665D+00
 Coeff:      0.109D-06-0.261D-06-0.351D-07 0.222D-05 0.101D-04 0.143D-04
 Coeff:      0.859D-05-0.203D-04-0.208D-03-0.447D-03-0.813D-03-0.314D-02
 Coeff:     -0.676D-02 0.591D-03 0.680D-01 0.278D+00 0.665D+00
 Gap=     0.122 Goal=   None    Shift=    0.000
 RMSDP=3.48D-09 MaxDP=1.87D-07 DE= 2.40D-10 OVMax= 5.48D-07

 SCF Done:  E(RPBE1PBE) =  -7517.81379543     A.U. after   17 cycles
            NFock= 17  Conv=0.35D-08     -V/T= 2.1285
 KE= 6.661934478798D+03 PE=-2.469379757140D+04 EE= 6.962800841370D+03
 Leave Link  502 at Tue Mar  6 12:10:27 2018, MaxMem=   536870912 cpu:      2983.5
 (Enter /share/apps//mg09/l601.exe)
 Copying SCF densities to generalized density rwf, IOpCl= 0 IROHF=0.

 **********************************************************************

            Population analysis using the SCF density.

 **********************************************************************

 Orbital symmetries:
       Occupied  (A) (A) (A) (A) (A) (A) (A) (A) (A) (A) (A) (A)
                 (A) (A) (A) (A) (A) (A) (A) (A) (A) (A) (A) (A)
                 (A) (A) (A) (A) (A) (A) (A) (A) (A) (A) (A) (A)
                 (A) (A) (A) (A) (A) (A) (A) (A) (A) (A) (A) (A)
                 (A) (A) (A) (A) (A) (A) (A) (A) (A) (A) (A) (A)
                 (A) (A) (A) (A) (A) (A) (A) (A) (A) (A) (A) (A)
                 (A) (A) (A) (A) (A) (A) (A) (A) (A) (A) (A) (A)
                 (A) (A) (A) (A) (A) (A) (A) (A) (A) (A) (A) (A)
                 (A) (A) (A) (A) (A) (A) (A) (A) (A) (A) (A) (A)
                 (A) (A) (A) (A) (A) (A) (A) (A)
       Virtual   (A) (A) (A) (A) (A) (A) (A) (A) (A) (A) (A) (A)
                 (A) (A) (A) (A) (A) (A) (A) (A) (A) (A) (A) (A)
                 (A) (A) (A) (A) (A) (A) (A) (A) (A) (A) (A) (A)
                 (A) (A) (A) (A) (A) (A) (A) (A) (A) (A) (A) (A)
                 (A) (A) (A) (A) (A) (A) (A) (A) (A) (A) (A) (A)
                 (A) (A) (A) (A) (A) (A) (A) (A) (A) (A) (A) (A)
                 (A) (A) (A) (A) (A) (A) (A) (A) (A) (A) (A) (A)
                 (A) (A) (A) (A) (A) (A) (A) (A) (A) (A) (A) (A)
                 (A) (A) (A) (A) (A) (A) (A) (A) (A) (A) (A) (A)
                 (A) (A) (A) (A) (A) (A) (A) (A) (A) (A) (A) (A)
                 (A) (A) (A) (A) (A) (A) (A) (A) (A) (A) (A) (A)
                 (A) (A) (A) (A) (A) (A) (A) (A) (A) (A) (A) (A)
                 (A) (A) (A) (A) (A) (A) (A) (A) (A) (A) (A) (A)
                 (A) (A) (A) (A) (A) (A) (A) (A) (A) (A) (A) (A)
                 (A) (A) (A) (A) (A) (A) (A) (A) (A) (A) (A) (A)
                 (A) (A) (A) (A) (A) (A) (A) (A) (A) (A) (A) (A)
                 (A) (A) (A) (A) (A) (A) (A) (A) (A) (A) (A) (A)
                 (A) (A) (A) (A) (A) (A) (A) (A) (A) (A) (A) (A)
                 (A) (A) (A) (A) (A) (A) (A) (A) (A) (A) (A) (A)
                 (A) (A) (A) (A) (A) (A) (A) (A) (A) (A) (A) (A)
                 (A) (A) (A) (A) (A) (A) (A) (A) (A) (A) (A) (A)
                 (A) (A) (A) (A) (A) (A) (A) (A) (A) (A) (A) (A)
                 (A) (A) (A) (A) (A) (A) (A) (A) (A) (A) (A) (A)
                 (A) (A) (A) (A) (A) (A) (A) (A) (A) (A) (A) (A)
                 (A) (A) (A) (A) (A) (A) (A) (A) (A) (A) (A) (A)
                 (A) (A) (A) (A) (A) (A) (A) (A) (A) (A) (A) (A)
                 (A) (A) (A) (A) (A) (A) (A) (A) (A) (A) (A) (A)
                 (A) (A) (A) (A)
 The electronic state is 1-A.
 Alpha  occ. eigenvalues -- -399.09901-399.09844-399.09367 -49.91454 -49.91402
 Alpha  occ. eigenvalues --  -49.90946 -44.39543 -44.39508 -44.39492 -44.39483
 Alpha  occ. eigenvalues --  -44.39466 -44.39419 -44.39020 -44.39010 -44.38969
 Alpha  occ. eigenvalues --   -6.27953  -6.27899  -6.27449  -6.02133  -6.01804
 Alpha  occ. eigenvalues --   -6.01624  -6.01228  -5.13976  -5.12922  -4.43410
 Alpha  occ. eigenvalues --   -4.43357  -4.43293  -4.43281  -4.43216  -4.43120
 Alpha  occ. eigenvalues --   -4.42878  -4.42832  -4.42693  -3.74435  -3.74240
 Alpha  occ. eigenvalues --   -3.74139  -3.74094  -3.73932  -3.73894  -3.73833
 Alpha  occ. eigenvalues --   -3.73831  -3.73571  -3.73512  -3.73327  -3.73204
 Alpha  occ. eigenvalues --   -3.47231  -3.47113  -3.46927  -3.46185  -3.46068
 Alpha  occ. eigenvalues --   -3.45863  -1.22860  -1.22842  -1.22817  -1.22803
 Alpha  occ. eigenvalues --   -1.22758  -1.22688  -1.22658  -1.22641  -1.22594
 Alpha  occ. eigenvalues --   -1.22573  -1.22347  -1.22331  -1.22235  -1.22166
 Alpha  occ. eigenvalues --   -1.22141  -1.08470  -1.08163  -1.08089  -1.07984
 Alpha  occ. eigenvalues --   -1.07822  -1.07791  -1.07755  -1.07718  -1.07683
 Alpha  occ. eigenvalues --   -1.07543  -1.07383  -1.07267  -1.07174  -1.07116
 Alpha  occ. eigenvalues --   -1.07086  -1.07036  -1.06998  -1.06817  -1.06808
 Alpha  occ. eigenvalues --   -1.06745  -1.03416  -1.03394  -1.03241  -1.03227
 Alpha  occ. eigenvalues --   -1.03129  -1.02388  -1.02350  -1.02223  -1.02072
 Alpha  occ. eigenvalues --   -1.02044  -0.66712  -0.62168  -0.59891  -0.55929
 Alpha  occ. eigenvalues --   -0.50786  -0.47233  -0.43632  -0.43310  -0.39934
 Alpha  occ. eigenvalues --   -0.28990  -0.27736  -0.26719  -0.25499  -0.24678
 Alpha  occ. eigenvalues --   -0.23956  -0.23346  -0.23019  -0.22372  -0.20691
 Alpha  occ. eigenvalues --   -0.19960
 Alpha virt. eigenvalues --   -0.07716  -0.07140  -0.07013  -0.06370  -0.05929
 Alpha virt. eigenvalues --   -0.05611  -0.05035  -0.04540  -0.04326  -0.03888
 Alpha virt. eigenvalues --   -0.03599  -0.02043  -0.01647   0.03872   0.04446
 Alpha virt. eigenvalues --    0.04836   0.06373   0.07990   0.08747   0.08901
 Alpha virt. eigenvalues --    0.09325   0.09932   0.10063   0.10460   0.11081
 Alpha virt. eigenvalues --    0.11212   0.11531   0.11733   0.12221   0.13170
 Alpha virt. eigenvalues --    0.13872   0.15262   0.15772   0.16094   0.17281
 Alpha virt. eigenvalues --    0.17710   0.18469   0.19775   0.20345   0.20688
 Alpha virt. eigenvalues --    0.20943   0.21932   0.23101   0.23232   0.24260
 Alpha virt. eigenvalues --    0.25002   0.25859   0.26106   0.27065   0.28454
 Alpha virt. eigenvalues --    0.28959   0.30160   0.30456   0.30960   0.31296
 Alpha virt. eigenvalues --    0.31362   0.32213   0.33025   0.33435   0.33810
 Alpha virt. eigenvalues --    0.34506   0.35082   0.36189   0.37127   0.37738
 Alpha virt. eigenvalues --    0.38529   0.39721   0.40603   0.41484   0.41918
 Alpha virt. eigenvalues --    0.42474   0.42596   0.42729   0.43983   0.44938
 Alpha virt. eigenvalues --    0.45511   0.47225   0.48017   0.48236   0.48503
 Alpha virt. eigenvalues --    0.49142   0.49747   0.50473   0.50801   0.51469
 Alpha virt. eigenvalues --    0.52127   0.54069   0.54573   0.55616   0.56709
 Alpha virt. eigenvalues --    0.56799   0.57850   0.58459   0.58593   0.59214
 Alpha virt. eigenvalues --    0.59855   0.60666   0.61209   0.61735   0.62549
 Alpha virt. eigenvalues --    0.63133   0.63533   0.64060   0.64710   0.65762
 Alpha virt. eigenvalues --    0.66436   0.67267   0.67805   0.68394   0.69330
 Alpha virt. eigenvalues --    0.70678   0.71786   0.71929   0.72960   0.74684
 Alpha virt. eigenvalues --    0.75526   0.75582   0.77315   0.78040   0.78905
 Alpha virt. eigenvalues --    0.79597   0.80968   0.81302   0.81901   0.82577
 Alpha virt. eigenvalues --    0.83082   0.83321   0.84927   0.85015   0.85877
 Alpha virt. eigenvalues --    0.86689   0.87044   0.87331   0.88480   0.89080
 Alpha virt. eigenvalues --    0.90471   0.91195   0.91760   0.92432   0.93822
 Alpha virt. eigenvalues --    0.94292   0.95157   0.96699   0.97449   0.97718
 Alpha virt. eigenvalues --    0.98333   0.98511   0.99230   1.01717   1.01891
 Alpha virt. eigenvalues --    1.03957   1.05525   1.06175   1.06697   1.07395
 Alpha virt. eigenvalues --    1.08081   1.09598   1.10749   1.12139   1.12691
 Alpha virt. eigenvalues --    1.13069   1.13938   1.15703   1.15785   1.16582
 Alpha virt. eigenvalues --    1.18436   1.18637   1.19114   1.19685   1.20068
 Alpha virt. eigenvalues --    1.20769   1.20938   1.21646   1.21961   1.22127
 Alpha virt. eigenvalues --    1.22462   1.23086   1.23454   1.23973   1.24363
 Alpha virt. eigenvalues --    1.25186   1.25319   1.25674   1.26169   1.26439
 Alpha virt. eigenvalues --    1.26765   1.28195   1.28620   1.28784   1.29309
 Alpha virt. eigenvalues --    1.30028   1.31505   1.31797   1.32322   1.33598
 Alpha virt. eigenvalues --    1.33727   1.35349   1.36503   1.36629   1.39106
 Alpha virt. eigenvalues --    1.39585   1.40486   1.41454   1.41960   1.43697
 Alpha virt. eigenvalues --    1.45206   1.46401   1.47714   1.48343   1.48743
 Alpha virt. eigenvalues --    1.50336   1.51284   1.51471   1.52179   1.52981
 Alpha virt. eigenvalues --    1.54166   1.55616   1.58358   1.59436   1.60373
 Alpha virt. eigenvalues --    1.63281   1.65861   1.69767   2.03726   2.08126
 Alpha virt. eigenvalues --    2.09342   2.10471   2.12167   2.15022   2.16144
 Alpha virt. eigenvalues --    2.17017   2.18471   2.19526   2.20518   2.21920
 Alpha virt. eigenvalues --    2.22082   2.22756   2.23235   2.24307   2.25788
 Alpha virt. eigenvalues --    2.27157   2.27757   2.29634   2.31271   2.31780
 Alpha virt. eigenvalues --    2.33047   2.35605   2.36806   2.38001   2.40048
 Alpha virt. eigenvalues --    2.41027   2.41758   2.42022   2.43350   2.44794
 Alpha virt. eigenvalues --    2.46889   2.50641   2.52158   2.53821   2.55713
 Alpha virt. eigenvalues --    2.56178   2.59453   2.60667   2.65185   2.66737
 Alpha virt. eigenvalues --    2.67638   2.68303   2.71605   2.74361   2.74584
 Alpha virt. eigenvalues --    2.77665   2.78240   2.79588   2.80580   2.82407
 Alpha virt. eigenvalues --    2.83565   2.83981   2.86935   2.90848   2.95138
 Alpha virt. eigenvalues --    3.22779   3.24291   3.29261   3.36283   3.38824
 Alpha virt. eigenvalues --    3.41253   3.92901   3.95765   3.97830   3.98395
 Alpha virt. eigenvalues --    4.02171   4.03986   4.08547   4.09401   4.11379
 Alpha virt. eigenvalues --    5.21275   5.32464   5.44094  35.36405  35.39955
 Alpha virt. eigenvalues --   35.41309  35.43579  35.46075  35.47063  35.49945
 Alpha virt. eigenvalues --   35.51371  35.53117  35.54908  35.60042  35.63740
 Alpha virt. eigenvalues --   35.85940  35.93833  36.03030  36.06626  36.19493
 Alpha virt. eigenvalues --   36.21821  36.95340  36.97059  36.97638  37.05603
 Alpha virt. eigenvalues --   37.08345  37.16393 113.57687 113.59017 120.21592
 Alpha virt. eigenvalues --  120.23620 120.25147 120.25491
          Condensed to atoms (all electrons):
               1          2          3          4          5          6
     1  Ge  31.514801   0.146698   0.073646   0.147244  -0.016139  -0.018662
     2  Bi   0.146698  22.338242   0.167481   0.179523   0.194281  -0.032626
     3  Ge   0.073646   0.167481  31.511225  -0.017223   0.097359  -0.021225
     4  Bi   0.147244   0.179523  -0.017223  22.396777  -0.021851   0.189845
     5  Ge  -0.016139   0.194281   0.097359  -0.021851  31.583127   0.180983
     6  Bi  -0.018662  -0.032626  -0.021225   0.189845   0.180983  22.401024
     7  Sn   0.069041  -0.018145  -0.018166   0.154052  -0.015226   0.117980
     8  Bi  -0.023270  -0.026863   0.115123  -0.023396   0.149454   0.167561
     9  Sn   0.188553  -0.022857   0.154682  -0.016264  -0.012881  -0.015540
               7          8          9
     1  Ge   0.069041  -0.023270   0.188553
     2  Bi  -0.018145  -0.026863  -0.022857
     3  Ge  -0.018166   0.115123   0.154682
     4  Bi   0.154052  -0.023396  -0.016264
     5  Ge  -0.015226   0.149454  -0.012881
     6  Bi   0.117980   0.167561  -0.015540
     7  Sn  21.397982   0.086950   0.161936
     8  Bi   0.086950  22.276268   0.154994
     9  Sn   0.161936   0.154994  21.426446
 Mulliken charges:
               1
     1  Ge  -0.081913
     2  Bi   0.074265
     3  Ge  -0.062902
     4  Bi   0.011292
     5  Ge  -0.139106
     6  Bi   0.030660
     7  Sn   0.063596
     8  Bi   0.123178
     9  Sn  -0.019069
 Sum of Mulliken charges =   0.00000
 Mulliken charges with hydrogens summed into heavy atoms:
               1
     1  Ge  -0.081913
     2  Bi   0.074265
     3  Ge  -0.062902
     4  Bi   0.011292
     5  Ge  -0.139106
     6  Bi   0.030660
     7  Sn   0.063596
     8  Bi   0.123178
     9  Sn  -0.019069
 Electronic spatial extent (au):  <R**2>=           6010.0770
 Charge=              0.0000 electrons
 Dipole moment (field-independent basis, Debye):
    X=             -0.2439    Y=              1.3309    Z=              0.3225  Tot=              1.3910
 Quadrupole moment (field-independent basis, Debye-Ang):
   XX=           -213.2472   YY=           -219.4317   ZZ=           -221.1830
   XY=             -0.4219   XZ=              0.6966   YZ=             -0.0579
 Traceless Quadrupole moment (field-independent basis, Debye-Ang):
   XX=              4.7067   YY=             -1.4777   ZZ=             -3.2290
   XY=             -0.4219   XZ=              0.6966   YZ=             -0.0579
 Octapole moment (field-independent basis, Debye-Ang**2):
  XXX=            -62.9957  YYY=             98.2303  ZZZ=            -29.1654  XYY=            -26.0244
  XXY=             33.0570  XXZ=            -18.7642  XZZ=            -21.9768  YZZ=             32.5795
  YYZ=            -18.2370  XYZ=             -4.8168
 Hexadecapole moment (field-independent basis, Debye-Ang**3):
 XXXX=          -3465.2710 YYYY=          -3214.5784 ZZZZ=          -3052.0102 XXXY=             67.0945
 XXXZ=            -88.8740 YYYX=             42.2607 YYYZ=             -4.9900 ZZZX=            -49.0430
 ZZZY=             12.7607 XXYY=          -1124.8361 XXZZ=          -1081.8076 YYZZ=          -1038.2002
 XXYZ=             21.5310 YYXZ=            -15.7310 ZZXY=             21.4496
 N-N= 3.551248455800D+03 E-N=-2.469379756842D+04  KE= 6.661934478798D+03
 No NMR shielding tensors so no spin-rotation constants.
 Leave Link  601 at Tue Mar  6 12:10:28 2018, MaxMem=   536870912 cpu:         1.1
 (Enter /share/apps//mg09/l701.exe)
 Compute integral first derivatives.
 ... and contract with generalized density number  0.
   1 Symmetry operations used in ECPInt.
 ECPInt:  NShTT=   10440 NPrTT=   41973 LenC2=    9672 LenP2D=   27462.
 LDataN:  DoStor=T MaxTD1= 9 Len=  602
 Leave Link  701 at Tue Mar  6 12:10:44 2018, MaxMem=   536870912 cpu:        66.7
 (Enter /share/apps//mg09/l702.exe)
 L702 exits ... SP integral derivatives will be done elsewhere.
 Leave Link  702 at Tue Mar  6 12:10:45 2018, MaxMem=   536870912 cpu:         0.1
 (Enter /share/apps//mg09/l703.exe)
 Compute integral first derivatives, UseDBF=F ICtDFT=           0.
 Integral derivatives from FoFJK, PRISM(SPDF).
 Calling FoFJK, ICntrl=      2127 FMM=F ISym2X=0 I1Cent= 0 IOpClX= 0 NMat=1 NMatS=1 NMatT=0.
 FoFJK:  IHMeth= 1 ICntrl=    2127 DoSepK=F KAlg= 0 I1Cent=   0 FoldK=F
 IRaf=         0 NMat=   1 IRICut=       1 DoRegI=T DoRafI=F ISym2E= 0.
 FoFCou: FMM=F IPFlag=           0 FMFlag=      100000 FMFlg1=         800
         NFxFlg=           0 DoJE=F BraDBF=F KetDBF=F FulRan=T
         wScrn=  0.000000 ICntrl=    2127 IOpCl=  0 I1Cent=           0 NGrid=           0
         NMat0=    1 NMatS0=      1 NMatT0=    0 NMatD0=    1 NMtDS0=    0 NMtDT0=    0
 Symmetry not used in FoFCou.
 Defaulting to unpruned grid for atomic number  83.
 Defaulting to unpruned grid for atomic number  83.
 Defaulting to unpruned grid for atomic number  83.
 Defaulting to unpruned grid for atomic number  83.
 Leave Link  703 at Tue Mar  6 12:13:42 2018, MaxMem=   536870912 cpu:       709.3
 (Enter /share/apps//mg09/l716.exe)
 Dipole        =-9.59427926D-02 5.23628771D-01 1.26897004D-01
 ***** Axes restored to original set *****
 -------------------------------------------------------------------
 Center     Atomic                   Forces (Hartrees/Bohr)
 Number     Number              X              Y              Z
 -------------------------------------------------------------------
      1       32          -0.007761390   -0.007489721   -0.009474439
      2       83          -0.009985321   -0.002535894    0.003305584
      3       32           0.003721079   -0.012817080    0.006537082
      4       83          -0.007107752    0.004350207   -0.001509641
      5       32          -0.002552060    0.003107911    0.012536550
      6       83          -0.000783360    0.007799484    0.001274976
      7       50           0.003453598    0.008694741   -0.008137259
      8       83           0.009218476    0.004262493    0.002501574
      9       50           0.011796731   -0.005372142   -0.007034428
 -------------------------------------------------------------------
 Cartesian Forces:  Max     0.012817080 RMS     0.007025898
 Force constants in Cartesian coordinates: 
                1             2             3             4             5 
      1  0.172885D+00
      2  0.379373D-02  0.175272D+00
      3  0.516550D-02  0.445570D-01  0.190290D+00
      4 -0.389376D-01 -0.888252D-02  0.213871D-02  0.195007D+00
      5  0.522876D-02 -0.230091D-01 -0.215738D-01  0.161542D-01  0.118579D+00
      6  0.340308D-01 -0.277799D-03 -0.687530D-01 -0.160209D-01 -0.727640D-02
      7 -0.233283D-01  0.112515D-01 -0.113548D-01 -0.782085D-01  0.379821D-01
      8 -0.648964D-02 -0.337042D-01 -0.147237D-01  0.220461D-02 -0.346192D-01
      9 -0.117517D-01  0.174034D-01 -0.369247D-01  0.110714D-01  0.439434D-02
     10 -0.372004D-01  0.282501D-02 -0.897547D-02 -0.269036D-01 -0.149094D-01
     11  0.303738D-01 -0.630629D-01 -0.284045D-02  0.117162D-01 -0.363919D-01
     12  0.817643D-02 -0.259082D-01 -0.255422D-01 -0.130505D-01  0.252175D-01
     13  0.644872D-02 -0.116156D-02  0.266037D-04 -0.455901D-01 -0.271406D-01
     14 -0.849998D-03  0.316581D-02  0.986526D-03 -0.136009D-01 -0.303165D-01
     15 -0.315499D-02 -0.867970D-02 -0.463364D-02  0.168192D-02 -0.527655D-02
     16  0.520743D-02  0.594306D-04 -0.436405D-03  0.875508D-05 -0.476497D-02
     17 -0.303303D-02 -0.331252D-02 -0.927995D-02 -0.376408D-02 -0.600728D-02
     18 -0.662422D-03  0.141879D-04  0.123446D-02  0.299111D-02 -0.114748D-02
     19 -0.182696D-01 -0.121537D-01  0.924449D-02  0.123180D-02 -0.259912D-02
     20 -0.106028D-01 -0.305993D-01  0.148462D-01 -0.481729D-02  0.301575D-02
     21 -0.786088D-02 -0.145955D-01 -0.276903D-01  0.773754D-02  0.584058D-02
     22 -0.261550D-02 -0.779129D-02 -0.935610D-02 -0.508264D-02 -0.712829D-02
     23 -0.197504D-02  0.309907D-02 -0.481754D-02 -0.139689D-02  0.457303D-02
     24 -0.350756D-02 -0.581496D-02  0.115453D-02 -0.415320D-02 -0.335392D-03
     25 -0.641896D-01  0.120595D-01  0.135475D-01 -0.152477D-02 -0.282266D-02
     26 -0.164457D-01 -0.278490D-01 -0.715426D-02  0.238666D-02  0.417590D-02
     27 -0.204352D-01 -0.669841D-02 -0.291351D-01  0.760392D-02  0.157174D-03
                6             7             8             9            10 
      6  0.155039D+00
      7 -0.844892D-02  0.180322D+00
      8  0.104531D-01 -0.233322D-01  0.215852D+00
      9 -0.268874D-01 -0.519387D-02 -0.298572D-01  0.161809D+00
     10  0.108565D-01  0.111289D-02  0.872851D-02 -0.436005D-02  0.160263D+00
     11  0.158084D-01  0.548040D-04 -0.515677D-03  0.936818D-03 -0.226682D-01
     12 -0.323799D-01 -0.283220D-02  0.577890D-02  0.394981D-02  0.165599D-01
     13 -0.333783D-01 -0.205145D-01  0.770774D-02  0.128320D-01  0.384172D-03
     14 -0.187580D-01  0.946593D-02 -0.476392D-01 -0.262563D-01  0.398091D-02
     15 -0.449477D-01  0.800730D-03  0.127867D-01 -0.363423D-01 -0.338463D-02
     16  0.316971D-02  0.509681D-02 -0.116377D-02 -0.151651D-02 -0.346789D-01
     17 -0.896051D-03  0.494501D-02 -0.622215D-02  0.434519D-02  0.689833D-02
     18  0.583268D-02 -0.482370D-03 -0.364292D-02  0.551278D-02 -0.905921D-02
     19 -0.214228D-03  0.617405D-02 -0.174770D-02  0.313736D-02 -0.568344D-01
     20  0.114596D-02  0.230970D-02 -0.281245D-02  0.579188D-02  0.110225D-01
     21  0.280806D-03 -0.157407D-03  0.112871D-01 -0.573007D-03 -0.234688D-02
     22  0.356689D-02 -0.396055D-01  0.139280D-02 -0.920390D-02 -0.456171D-02
     23  0.264994D-02 -0.319901D-01 -0.561160D-01 -0.316129D-02 -0.315882D-02
     24  0.537918D-02  0.156036D-02  0.126707D-01 -0.220331D-01 -0.231584D-02
     25  0.643848D-02 -0.310487D-01  0.126997D-01  0.498530D-02 -0.158071D-02
     26 -0.284914D-02 -0.106866D-01 -0.342235D-01  0.264031D-01  0.728114D-02
     27  0.643604D-02  0.261085D-01 -0.475268D-02 -0.485110D-01  0.302569D-02
               11            12            13            14            15 
     11  0.141131D+00
     12 -0.987816D-02  0.109342D+00
     13  0.396033D-02 -0.336672D-02  0.129031D+00
     14  0.607875D-02  0.120251D-02  0.156703D-01  0.131329D+00
     15  0.118895D-02 -0.574752D-02 -0.134803D-01  0.462790D-02  0.190627D+00
     16 -0.209569D-01 -0.260821D-01 -0.157068D-01 -0.553514D-02  0.413890D-02
     17 -0.332465D-01 -0.240787D-02  0.446019D-02 -0.537787D-01  0.603571D-03
     18 -0.168789D-01 -0.303401D-01 -0.366048D-02  0.370988D-01 -0.467946D-01
     19 -0.135787D-01  0.283212D-01  0.473433D-02 -0.176638D-02  0.502930D-02
     20 -0.239948D-01  0.549252D-02 -0.170344D-02  0.459899D-02  0.581833D-02
     21  0.108565D-01 -0.261430D-01 -0.798725D-03 -0.978108D-03 -0.473081D-02
     22  0.478284D-02 -0.580135D-02 -0.622598D-01 -0.114668D-01  0.219920D-02
     23  0.431439D-02 -0.366986D-03 -0.556494D-02 -0.209827D-01 -0.637343D-02
     24  0.283059D-02  0.333741D-02  0.414862D-01  0.314194D-02 -0.450098D-01
     25  0.631589D-02 -0.192468D-02  0.347337D-02  0.410211D-02  0.616982D-02
     26  0.568770D-02  0.869770D-03  0.377199D-02  0.754478D-02 -0.469579D-02
     27 -0.202369D-02  0.352382D-02  0.339701D-03 -0.106533D-02 -0.242096D-02
               16            17            18            19            20 
     16  0.102170D+00
     17 -0.140276D-01  0.169862D+00
     18  0.647044D-02  0.102195D-01  0.126411D+00
     19 -0.165530D-01 -0.128488D-02  0.107605D-01  0.133749D+00
     20  0.113390D-01 -0.290107D-01 -0.230064D-01  0.237025D-02  0.143128D+00
     21  0.125443D-01  0.128183D-01 -0.460177D-01 -0.290495D-01 -0.341000D-01
     22 -0.483419D-01  0.561426D-03 -0.109744D-01 -0.282370D-01 -0.989476D-02
     23  0.354341D-01 -0.365694D-01  0.147966D-03  0.535364D-02 -0.172325D-01
     24 -0.114805D-02 -0.991697D-02 -0.212651D-01 -0.221040D-01  0.928242D-03
     25  0.279730D-02  0.524469D-02  0.461680D-02 -0.259953D-01 -0.231841D-04
     26 -0.384123D-03 -0.171472D-02 -0.280479D-02  0.254066D-01 -0.470935D-01
     27  0.285964D-02 -0.548567D-02  0.542699D-02 -0.512511D-02  0.230832D-01
               21            22            23            24            25 
     21  0.167879D+00
     22  0.664564D-02  0.221324D+00
     23  0.156877D-01  0.179101D-01  0.152929D+00
     24 -0.355172D-01  0.100410D-01  0.183252D-01  0.156667D+00
     25  0.132859D-01 -0.306203D-01 -0.146121D-01 -0.198590D-01  0.148689D+00
     26 -0.681653D-02  0.116340D-01 -0.340153D-01 -0.218294D-01 -0.229640D-01
     27 -0.274875D-01  0.128830D-01 -0.220916D-01 -0.427135D-01 -0.272602D-01
               26            27 
     26  0.127488D+00
     27  0.188770D-01  0.134881D+00
 Leave Link  716 at Tue Mar  6 12:13:42 2018, MaxMem=   536870912 cpu:         0.1
 (Enter /share/apps//mg09/l103.exe)

 GradGradGradGradGradGradGradGradGradGradGradGradGradGradGradGradGradGrad
 Berny optimization.
 Search for a local minimum.
 Step number   1 out of a maximum of  100
 All quantities printed in internal units (Hartrees-Bohrs-Radians)
 Second derivative matrix not updated -- first step.
 ITU=  0
     Eigenvalues ---    0.08174   0.11386   0.11683   0.13016   0.13880
     Eigenvalues ---    0.13977   0.14369   0.15488   0.16587   0.16774
     Eigenvalues ---    0.18123   0.22187   0.22843   0.23162   0.24422
     Eigenvalues ---    0.26014   0.27101   0.28188   0.29565   0.29901
     Eigenvalues ---    0.32809
 RFO step:  Lambda=-7.98054447D-03 EMin= 8.17399871D-02
 Linear search not attempted -- first point.
 TrRot= -0.000946 -0.001706  0.001322 -0.347262  0.000032  0.347350
 MatCor failed.
 Variable       Old X    -DE/DX   Delta X   Delta X   Delta X     New X
                                 (Linear)    (Quad)   (Total)
    X1        1.41899  -0.00776   0.00000  -0.04249  -0.04362   1.37537
    Y1        3.30435  -0.00749   0.00000  -0.04045  -0.04207   3.26228
    Z1        3.17371  -0.00947   0.00000  -0.05347  -0.05216   3.12155
    X2        3.75968  -0.00999   0.00000  -0.05133  -0.05256   3.70712
    Y2        2.70518  -0.00254   0.00000  -0.02932  -0.03068   2.67450
    Z2       -1.75267   0.00331   0.00000   0.02311   0.02435  -1.72832
    X3       -1.35528   0.00372   0.00000   0.01729   0.01590  -1.33938
    Y3        4.40368  -0.01282   0.00000  -0.06543  -0.06723   4.33644
    Z3       -1.81735   0.00654   0.00000   0.03469   0.03610  -1.78124
    X4        3.77834  -0.00711   0.00000  -0.04895  -0.04969   3.72864
    Y4       -1.59949   0.00435   0.00000   0.02897   0.02756  -1.57193
    Z4        2.11366  -0.00151   0.00000  -0.01935  -0.01816   2.09550
    X5        0.11199  -0.00255   0.00000  -0.01320  -0.01430   0.09769
    Y5        0.08379   0.00311   0.00000   0.02181   0.02017   0.10396
    Z5       -4.88767   0.01254   0.00000   0.07274   0.07406  -4.81362
    X6        0.09097  -0.00078   0.00000   0.00131   0.00069   0.09166
    Y6       -4.23457   0.00780   0.00000   0.06136   0.05967  -4.17489
    Z6       -1.42554   0.00127   0.00000   0.01218   0.01346  -1.41208
    X7       -1.67236   0.00345   0.00000   0.02057   0.01992  -1.65244
    Y7       -2.08910   0.00869   0.00000   0.05556   0.05367  -2.03543
    Z7        3.89213  -0.00814   0.00000  -0.05632  -0.05497   3.83716
    X8       -4.28995   0.00922   0.00000   0.05243   0.05148  -4.23847
    Y8       -0.49669   0.00426   0.00000   0.01822   0.01616  -0.48054
    Z8       -1.63928   0.00250   0.00000   0.02427   0.02572  -1.61357
    X9       -3.98288   0.01180   0.00000   0.07332   0.07218  -3.91070
    Y9        3.12077  -0.00537   0.00000  -0.03516  -0.03724   3.08354
    Z9        2.85626  -0.00703   0.00000  -0.04987  -0.04839   2.80787
         Item               Value     Threshold  Converged?
 Maximum Force            0.012817     0.000450     NO 
 RMS     Force            0.007026     0.000300     NO 
 Maximum Displacement     0.074056     0.001800     NO 
 RMS     Displacement     0.042590     0.001200     NO 
 Predicted change in Energy=-4.185908D-03
 Lowest energy point so far.  Saving SCF results.
 GradGradGradGradGradGradGradGradGradGradGradGradGradGradGradGradGradGrad

 Leave Link  103 at Tue Mar  6 12:13:42 2018, MaxMem=   536870912 cpu:         0.1
 (Enter /share/apps//mg09/l202.exe)
                          Input orientation:                          
 ---------------------------------------------------------------------
 Center     Atomic      Atomic             Coordinates (Angstroms)
 Number     Number       Type             X           Y           Z
 ---------------------------------------------------------------------
      1         32           0        0.727812    1.726325    1.651853
      2         83           0        1.961721    1.415283   -0.914589
      3         32           0       -0.708769    2.294746   -0.942594
      4         83           0        1.973112   -0.831827    1.108891
      5         32           0        0.051696    0.055013   -2.547256
      6         83           0        0.048506   -2.209258   -0.747241
      7         50           0       -0.874434   -1.077106    2.030539
      8         83           0       -2.242900   -0.254289   -0.853862
      9         50           0       -2.069453    1.631737    1.485861
 ---------------------------------------------------------------------
                    Distance matrix (angstroms):
                    1          2          3          4          5
     1  Ge   0.000000
     2  Bi   2.864595   0.000000
     3  Ge   3.019606   2.811717   0.000000
     4  Bi   2.896502   3.023922   4.601797   0.000000
     5  Ge   4.569785   2.857294   2.858260   4.224421   0.000000
     6  Bi   4.658961   4.101913   4.571397   3.007765   2.892574
     7  Sn   3.251126   4.788482   4.498483   3.003018   4.805790
     8  Bi   4.361946   4.524378   2.976409   4.686225   2.868523
     9  Sn   2.803782   4.696741   2.861544   4.749062   4.821967
                    6          7          8          9
     6  Bi   0.000000
     7  Sn   3.138416   0.000000
     8  Bi   3.013937   3.296892   0.000000
     9  Sn   4.921965   3.010411   3.010229   0.000000
 Stoichiometry    Bi4Ge3Sn2
 Framework group  C1[X(Bi4Ge3Sn2)]
 Deg. of freedom    21
 Full point group                 C1      NOp   1
 RotChk:  IX=0 Diff= 8.35D-03
 Largest Abelian subgroup         C1      NOp   1
 Largest concise Abelian subgroup C1      NOp   1
                         Standard orientation:                         
 ---------------------------------------------------------------------
 Center     Atomic      Atomic             Coordinates (Angstroms)
 Number     Number       Type             X           Y           Z
 ---------------------------------------------------------------------
      1         32           0       -0.729825   -1.729246    1.643643
      2         83           0       -1.954267   -1.415084   -0.926950
      3         32           0        0.719163   -2.285797   -0.946474
      4         83           0       -1.981223    0.826350    1.102669
      5         32           0       -0.042042   -0.044096   -2.548035
      6         83           0       -0.053562    2.215166   -0.741772
      7         50           0        0.861728    1.078306    2.036617
      8         83           0        2.244613    0.267946   -0.844432
      9         50           0        2.067771   -1.625123    1.489342
 ---------------------------------------------------------------------
 Rotational constants (GHZ):      0.1042174      0.0912989      0.0842520
 Leave Link  202 at Tue Mar  6 12:13:44 2018, MaxMem=   536870912 cpu:         0.0
 (Enter /share/apps//mg09/l301.exe)
 Standard basis: def2TZVP (5D, 7F)
 Ernie: Thresh=  0.10000D-02 Tol=  0.10000D-05 Strict=F.
 There are   519 symmetry adapted cartesian basis functions of A   symmetry.
 There are   444 symmetry adapted basis functions of A   symmetry.
   444 basis functions,   963 primitive gaussians,   519 cartesian basis functions
   116 alpha electrons      116 beta electrons
       nuclear repulsion energy      3606.1182719503 Hartrees.
 IExCor= 1009 DFT=T Ex+Corr=PBE1PBE ExCW=0 ScaHFX=  0.250000
 ScaDFX=  0.750000  0.750000  1.000000  1.000000 ScalE2=  1.000000  1.000000
 IRadAn=      0 IRanWt=     -1 IRanGd=            0 ICorTp=0 IEmpDi=  4
 NAtoms=    9 NActive=    9 NUniq=    9 SFac= 1.00D+00 NAtFMM=   60 NAOKFM=F Big=F
 Integral buffers will be    131072 words long.
 Raffenetti 2 integral format.
 Two-electron integral symmetry is turned on.
 Leave Link  301 at Tue Mar  6 12:13:44 2018, MaxMem=   536870912 cpu:         0.2
 (Enter /share/apps//mg09/l302.exe)
 NPDir=0 NMtPBC=     1 NCelOv=     1 NCel=       1 NClECP=     1 NCelD=      1
         NCelK=      1 NCelE2=     1 NClLst=     1 CellRange=     0.0.
 One-electron integrals computed using PRISM.
   1 Symmetry operations used in ECPInt.
 ECPInt:  NShTT=   10440 NPrTT=   41973 LenC2=    9693 LenP2D=   27635.
 LDataN:  DoStor=T MaxTD1= 8 Len=  415
 NBasis=   444 RedAO= T EigKep=  9.54D-04  NBF=   444
 NBsUse=   444 1.00D-06 EigRej= -1.00D+00 NBFU=   444
 Precomputing XC quadrature grid using
 IXCGrd= 4 IRadAn=           0 IRanWt=          -1 IRanGd=           0 AccXCQ= 0.00D+00.
 Defaulting to unpruned grid for atomic number  50.
 Defaulting to unpruned grid for atomic number  83.
 Defaulting to unpruned grid for atomic number  83.
 Generated NRdTot=       0 NPtTot=           0 NUsed=           0 NTot=          32
 NSgBfM=   501   501   501   501   501 MxSgAt=     9 MxSgA2=     9.
 Leave Link  302 at Tue Mar  6 12:13:50 2018, MaxMem=   536870912 cpu:        25.5
 (Enter /share/apps//mg09/l303.exe)
 DipDrv:  MaxL=1.
 Leave Link  303 at Tue Mar  6 12:13:50 2018, MaxMem=   536870912 cpu:         0.2
 (Enter /share/apps//mg09/l401.exe)
 Initial guess from the checkpoint file:  "Isomer_19.chk"
 B after Tr=     0.000000    0.000000    0.000000
         Rot=    0.999996   -0.001495    0.002009   -0.001544 Ang=  -0.34 deg.
 Guess basis will be translated and rotated to current coordinates.
 JPrj=2 DoOrth=T DoCkMO=T.
 Generating alternative initial guess.
 ExpMin= 4.62D-02 ExpMax= 4.66D+05 ExpMxC= 4.50D+03 IAcc=2 IRadAn=         4 AccDes= 0.00D+00
 Harris functional with IExCor= 1009 and IRadAn=       4 diagonalized for initial guess.
 HarFok:  IExCor= 1009 AccDes= 0.00D+00 IRadAn=         4 IDoV= 1 UseB2=F ITyADJ=14
 ICtDFT=  3500011 ScaDFX=  1.000000  1.000000  1.000000  1.000000
 Defaulting to unpruned grid for atomic number  83.
 Defaulting to unpruned grid for atomic number  83.
 Defaulting to unpruned grid for atomic number  83.
 Defaulting to unpruned grid for atomic number  83.
 FoFCou: FMM=F IPFlag=           0 FMFlag=      100000 FMFlg1=           0
         NFxFlg=           0 DoJE=T BraDBF=F KetDBF=T FulRan=T
         wScrn=  0.000000 ICntrl=     500 IOpCl=  0 I1Cent=   200000004 NGrid=           0
         NMat0=    1 NMatS0=      1 NMatT0=    0 NMatD0=    1 NMtDS0=    0 NMtDT0=    0
 Petite list used in FoFCou.
 Harris En= -7518.61729723787    
 Leave Link  401 at Tue Mar  6 12:13:53 2018, MaxMem=   536870912 cpu:        11.6
 (Enter /share/apps//mg09/l502.exe)
 Closed shell SCF:
 Using DIIS extrapolation, IDIIS=  1040.
 Integral symmetry usage will be decided dynamically.
 IVT=     1410107 IEndB=     1410107 NGot=   536870912 MDV=   536322046
 LenX=   536322046 LenY=   536052166
 Requested convergence on RMS density matrix=1.00D-08 within 768 cycles.
 Requested convergence on MAX density matrix=1.00D-06.
 Requested convergence on             energy=1.00D-06.
 No special actions if energy rises.
 Fock matrices will be formed incrementally for  20 cycles.

 Cycle   1  Pass 1  IDiag  1:
 FoFJK:  IHMeth= 1 ICntrl=       0 DoSepK=F KAlg= 0 I1Cent=   0 FoldK=F
 IRaf= 880000000 NMat=   1 IRICut=       1 DoRegI=T DoRafI=F ISym2E= 0.
 FoFCou: FMM=F IPFlag=           0 FMFlag=      100000 FMFlg1=           0
         NFxFlg=           0 DoJE=F BraDBF=F KetDBF=F FulRan=T
         wScrn=  0.000000 ICntrl=       0 IOpCl=  0 I1Cent=           0 NGrid=           0
         NMat0=    1 NMatS0=      1 NMatT0=    0 NMatD0=    1 NMtDS0=    0 NMtDT0=    0
 Symmetry not used in FoFCou.
 Defaulting to unpruned grid for atomic number  83.
 Defaulting to unpruned grid for atomic number  83.
 Defaulting to unpruned grid for atomic number  83.
 Defaulting to unpruned grid for atomic number  83.
 E= -7517.81825303088    
 DIIS: error= 5.08D-03 at cycle   1 NSaved=   1.
 NSaved= 1 IEnMin= 1 EnMin= -7517.81825303088     IErMin= 1 ErrMin= 5.08D-03
 ErrMax= 5.08D-03  0.00D+00 EMaxC= 1.00D-01 BMatC= 8.15D-03 BMatP= 8.15D-03
 IDIUse=3 WtCom= 9.49D-01 WtEn= 5.08D-02
 Coeff-Com:  0.100D+01
 Coeff-En:   0.100D+01
 Coeff:      0.100D+01
 Gap=     7.648 Goal=   None    Shift=    0.000
 GapD=    7.648 DampG=2.000 DampE=1.000 DampFc=2.0000 IDamp=-1.
 RMSDP=1.81D-04 MaxDP=5.34D-03              OVMax= 1.92D-02

 Cycle   2  Pass 1  IDiag  1:
 RMSU=  1.81D-04    CP:  1.00D+00
 E= -7517.81825747479     Delta-E=       -0.000004443911 Rises=F Damp=F
 DIIS: error= 1.43D-03 at cycle   2 NSaved=   2.
 NSaved= 2 IEnMin= 2 EnMin= -7517.81825747479     IErMin= 2 ErrMin= 1.43D-03
 ErrMax= 1.43D-03  0.00D+00 EMaxC= 1.00D-01 BMatC= 1.56D-03 BMatP= 8.15D-03
 IDIUse=3 WtCom= 9.86D-01 WtEn= 1.43D-02
 Coeff-Com:  0.199D+00 0.801D+00
 Coeff-En:   0.499D+00 0.501D+00
 Coeff:      0.204D+00 0.796D+00
 Gap=     0.125 Goal=   None    Shift=    0.000
 RMSDP=2.08D-04 MaxDP=8.11D-03 DE=-4.44D-06 OVMax= 1.58D-02

 Cycle   3  Pass 1  IDiag  1:
 RMSU=  1.89D-04    CP:  9.99D-01  5.46D-01
 E= -7517.81633842443     Delta-E=        0.001919050359 Rises=F Damp=F
 DIIS: error= 2.18D-03 at cycle   3 NSaved=   3.
 NSaved= 3 IEnMin= 2 EnMin= -7517.81825747479     IErMin= 2 ErrMin= 1.43D-03
 ErrMax= 2.18D-03  0.00D+00 EMaxC= 1.00D-01 BMatC= 3.74D-03 BMatP= 1.56D-03
 IDIUse=3 WtCom= 1.76D-01 WtEn= 8.24D-01
 Coeff-Com:  0.692D-02 0.606D+00 0.387D+00
 Coeff-En:   0.000D+00 0.668D+00 0.332D+00
 Coeff:      0.122D-02 0.657D+00 0.342D+00
 Gap=     0.126 Goal=   None    Shift=    0.000
 RMSDP=1.17D-04 MaxDP=4.81D-03 DE= 1.92D-03 OVMax= 1.16D-02

 Cycle   4  Pass 1  IDiag  1:
 RMSU=  4.32D-05    CP:  9.99D-01  7.97D-01  4.85D-01
 E= -7517.81931205417     Delta-E=       -0.002973629737 Rises=F Damp=F
 DIIS: error= 4.35D-04 at cycle   4 NSaved=   4.
 NSaved= 4 IEnMin= 4 EnMin= -7517.81931205417     IErMin= 4 ErrMin= 4.35D-04
 ErrMax= 4.35D-04  0.00D+00 EMaxC= 1.00D-01 BMatC= 2.11D-04 BMatP= 1.56D-03
 IDIUse=3 WtCom= 9.96D-01 WtEn= 4.35D-03
 Coeff-Com:  0.143D-04 0.438D+00 0.235D+00 0.328D+00
 Coeff-En:   0.000D+00 0.933D-01 0.000D+00 0.907D+00
 Coeff:      0.142D-04 0.436D+00 0.234D+00 0.330D+00
 Gap=     0.126 Goal=   None    Shift=    0.000
 RMSDP=3.86D-05 MaxDP=1.67D-03 DE=-2.97D-03 OVMax= 4.03D-03

 Cycle   5  Pass 1  IDiag  1:
 RMSU=  1.45D-05    CP:  9.99D-01  8.54D-01  4.42D-01  2.35D-01
 E= -7517.81948697525     Delta-E=       -0.000174921082 Rises=F Damp=F
 DIIS: error= 1.00D-04 at cycle   5 NSaved=   5.
 NSaved= 5 IEnMin= 5 EnMin= -7517.81948697525     IErMin= 5 ErrMin= 1.00D-04
 ErrMax= 1.00D-04  0.00D+00 EMaxC= 1.00D-01 BMatC= 1.46D-05 BMatP= 2.11D-04
 IDIUse=3 WtCom= 9.99D-01 WtEn= 1.00D-03
 Coeff-Com: -0.932D-03 0.224D+00 0.109D+00 0.244D+00 0.425D+00
 Coeff-En:   0.000D+00 0.000D+00 0.000D+00 0.805D-01 0.920D+00
 Coeff:     -0.931D-03 0.223D+00 0.109D+00 0.243D+00 0.425D+00
 Gap=     0.126 Goal=   None    Shift=    0.000
 RMSDP=1.04D-05 MaxDP=5.14D-04 DE=-1.75D-04 OVMax= 1.11D-03

 Cycle   6  Pass 1  IDiag  1:
 RMSU=  3.77D-06    CP:  9.99D-01  8.63D-01  4.34D-01  4.02D-01  5.99D-01
 E= -7517.81950289653     Delta-E=       -0.000015921272 Rises=F Damp=F
 DIIS: error= 1.25D-05 at cycle   6 NSaved=   6.
 NSaved= 6 IEnMin= 6 EnMin= -7517.81950289653     IErMin= 6 ErrMin= 1.25D-05
 ErrMax= 1.25D-05  0.00D+00 EMaxC= 1.00D-01 BMatC= 3.57D-07 BMatP= 1.46D-05
 IDIUse=1 WtCom= 1.00D+00 WtEn= 0.00D+00
 Coeff-Com: -0.421D-03 0.714D-01 0.351D-01 0.881D-01 0.200D+00 0.606D+00
 Coeff:     -0.421D-03 0.714D-01 0.351D-01 0.881D-01 0.200D+00 0.606D+00
 Gap=     0.126 Goal=   None    Shift=    0.000
 RMSDP=2.81D-06 MaxDP=2.10D-04 DE=-1.59D-05 OVMax= 4.04D-04

 Cycle   7  Pass 1  IDiag  1:
 RMSU=  2.39D-06    CP:  9.99D-01  8.65D-01  4.37D-01  3.96D-01  6.60D-01
                    CP:  8.14D-01
 E= -7517.81950288368     Delta-E=        0.000000012849 Rises=F Damp=F
 DIIS: error= 1.86D-05 at cycle   7 NSaved=   7.
 NSaved= 7 IEnMin= 6 EnMin= -7517.81950289653     IErMin= 6 ErrMin= 1.25D-05
 ErrMax= 1.86D-05  0.00D+00 EMaxC= 1.00D-01 BMatC= 3.15D-07 BMatP= 3.57D-07
 IDIUse=1 WtCom= 1.00D+00 WtEn= 0.00D+00
 Coeff-Com: -0.162D-03 0.137D-01 0.745D-02 0.246D-01 0.786D-01 0.498D+00
 Coeff-Com:  0.378D+00
 Coeff:     -0.162D-03 0.137D-01 0.745D-02 0.246D-01 0.786D-01 0.498D+00
 Coeff:      0.378D+00
 Gap=     0.126 Goal=   None    Shift=    0.000
 RMSDP=1.97D-06 MaxDP=6.87D-05 DE= 1.28D-08 OVMax= 2.52D-04

 Cycle   8  Pass 1  IDiag  1:
 RMSU=  9.67D-07    CP:  9.99D-01  8.66D-01  4.38D-01  3.97D-01  6.70D-01
                    CP:  1.03D+00  3.91D-01
 E= -7517.81950322744     Delta-E=       -0.000000343767 Rises=F Damp=F
 DIIS: error= 7.74D-06 at cycle   8 NSaved=   8.
 NSaved= 8 IEnMin= 8 EnMin= -7517.81950322744     IErMin= 8 ErrMin= 7.74D-06
 ErrMax= 7.74D-06  0.00D+00 EMaxC= 1.00D-01 BMatC= 6.53D-08 BMatP= 3.15D-07
 IDIUse=1 WtCom= 1.00D+00 WtEn= 0.00D+00
 Coeff-Com:  0.103D-04-0.144D-01-0.621D-02-0.980D-02-0.372D-02 0.221D+00
 Coeff-Com:  0.328D+00 0.485D+00
 Coeff:      0.103D-04-0.144D-01-0.621D-02-0.980D-02-0.372D-02 0.221D+00
 Coeff:      0.328D+00 0.485D+00
 Gap=     0.126 Goal=   None    Shift=    0.000
 RMSDP=7.49D-07 MaxDP=4.07D-05 DE=-3.44D-07 OVMax= 9.10D-05

 Cycle   9  Pass 1  IDiag  1:
 RMSU=  2.77D-07    CP:  9.99D-01  8.67D-01  4.39D-01  4.01D-01  6.78D-01
                    CP:  1.08D+00  5.56D-01  5.28D-01
 E= -7517.81950330251     Delta-E=       -0.000000075062 Rises=F Damp=F
 DIIS: error= 9.82D-07 at cycle   9 NSaved=   9.
 NSaved= 9 IEnMin= 9 EnMin= -7517.81950330251     IErMin= 9 ErrMin= 9.82D-07
 ErrMax= 9.82D-07  0.00D+00 EMaxC= 1.00D-01 BMatC= 2.55D-09 BMatP= 6.53D-08
 IDIUse=1 WtCom= 1.00D+00 WtEn= 0.00D+00
 Coeff-Com:  0.200D-04-0.928D-02-0.403D-02-0.740D-02-0.915D-02 0.793D-01
 Coeff-Com:  0.160D+00 0.276D+00 0.514D+00
 Coeff:      0.200D-04-0.928D-02-0.403D-02-0.740D-02-0.915D-02 0.793D-01
 Coeff:      0.160D+00 0.276D+00 0.514D+00
 Gap=     0.126 Goal=   None    Shift=    0.000
 RMSDP=1.64D-07 MaxDP=1.08D-05 DE=-7.51D-08 OVMax= 2.49D-05

 Cycle  10  Pass 1  IDiag  1:
 RMSU=  1.04D-07    CP:  9.99D-01  8.67D-01  4.40D-01  4.02D-01  6.84D-01
                    CP:  1.07D+00  5.74D-01  5.86D-01  8.22D-01
 E= -7517.81950330503     Delta-E=       -0.000000002528 Rises=F Damp=F
 DIIS: error= 3.45D-07 at cycle  10 NSaved=  10.
 NSaved=10 IEnMin=10 EnMin= -7517.81950330503     IErMin=10 ErrMin= 3.45D-07
 ErrMax= 3.45D-07  0.00D+00 EMaxC= 1.00D-01 BMatC= 2.26D-10 BMatP= 2.55D-09
 IDIUse=1 WtCom= 1.00D+00 WtEn= 0.00D+00
 Coeff-Com:  0.876D-05-0.332D-02-0.141D-02-0.275D-02-0.458D-02 0.199D-01
 Coeff-Com:  0.502D-01 0.969D-01 0.269D+00 0.576D+00
 Coeff:      0.876D-05-0.332D-02-0.141D-02-0.275D-02-0.458D-02 0.199D-01
 Coeff:      0.502D-01 0.969D-01 0.269D+00 0.576D+00
 Gap=     0.126 Goal=   None    Shift=    0.000
 RMSDP=8.29D-08 MaxDP=3.44D-06 DE=-2.53D-09 OVMax= 9.52D-06

 Cycle  11  Pass 1  IDiag  1:
 RMSU=  6.92D-08    CP:  9.99D-01  8.67D-01  4.40D-01  4.02D-01  6.85D-01
                    CP:  1.08D+00  5.76D-01  5.95D-01  9.02D-01  7.10D-01
 E= -7517.81950330524     Delta-E=       -0.000000000204 Rises=F Damp=F
 DIIS: error= 4.46D-07 at cycle  11 NSaved=  11.
 NSaved=11 IEnMin=11 EnMin= -7517.81950330524     IErMin=10 ErrMin= 3.45D-07
 ErrMax= 4.46D-07  0.00D+00 EMaxC= 1.00D-01 BMatC= 2.85D-10 BMatP= 2.26D-10
 IDIUse=1 WtCom= 1.00D+00 WtEn= 0.00D+00
 Coeff-Com:  0.104D-05 0.197D-03 0.117D-03 0.729D-04-0.113D-02-0.940D-02
 Coeff-Com: -0.108D-01-0.616D-02 0.744D-01 0.557D+00 0.396D+00
 Coeff:      0.104D-05 0.197D-03 0.117D-03 0.729D-04-0.113D-02-0.940D-02
 Coeff:     -0.108D-01-0.616D-02 0.744D-01 0.557D+00 0.396D+00
 Gap=     0.126 Goal=   None    Shift=    0.000
 RMSDP=5.27D-08 MaxDP=2.29D-06 DE=-2.04D-10 OVMax= 6.74D-06

 Cycle  12  Pass 1  IDiag  1:
 RMSU=  2.04D-08    CP:  9.99D-01  8.67D-01  4.40D-01  4.02D-01  6.85D-01
                    CP:  1.08D+00  5.78D-01  5.97D-01  9.24D-01  9.73D-01
                    CP:  4.79D-01
 E= -7517.81950330555     Delta-E=       -0.000000000313 Rises=F Damp=F
 DIIS: error= 6.79D-08 at cycle  12 NSaved=  12.
 NSaved=12 IEnMin=12 EnMin= -7517.81950330555     IErMin=12 ErrMin= 6.79D-08
 ErrMax= 6.79D-08  0.00D+00 EMaxC= 1.00D-01 BMatC= 1.02D-11 BMatP= 2.26D-10
 IDIUse=1 WtCom= 1.00D+00 WtEn= 0.00D+00
 Coeff-Com: -0.441D-06 0.492D-03 0.230D-03 0.349D-03-0.132D-03-0.740D-02
 Coeff-Com: -0.125D-01-0.146D-01 0.112D-01 0.266D+00 0.231D+00 0.525D+00
 Coeff:     -0.441D-06 0.492D-03 0.230D-03 0.349D-03-0.132D-03-0.740D-02
 Coeff:     -0.125D-01-0.146D-01 0.112D-01 0.266D+00 0.231D+00 0.525D+00
 Gap=     0.126 Goal=   None    Shift=    0.000
 RMSDP=1.28D-08 MaxDP=8.97D-07 DE=-3.13D-10 OVMax= 1.31D-06

 Cycle  13  Pass 1  IDiag  1:
 RMSU=  7.24D-09    CP:  9.99D-01  8.67D-01  4.40D-01  4.02D-01  6.85D-01
                    CP:  1.08D+00  5.78D-01  5.98D-01  9.40D-01  9.91D-01
                    CP:  5.58D-01  7.28D-01
 E= -7517.81950330518     Delta-E=        0.000000000367 Rises=F Damp=F
 DIIS: error= 3.18D-08 at cycle  13 NSaved=  13.
 NSaved=13 IEnMin=12 EnMin= -7517.81950330555     IErMin=13 ErrMin= 3.18D-08
 ErrMax= 3.18D-08  0.00D+00 EMaxC= 1.00D-01 BMatC= 1.39D-12 BMatP= 1.02D-11
 IDIUse=1 WtCom= 1.00D+00 WtEn= 0.00D+00
 Coeff-Com: -0.409D-06 0.259D-03 0.117D-03 0.196D-03 0.120D-03-0.286D-02
 Coeff-Com: -0.557D-02-0.774D-02-0.665D-02 0.680D-01 0.670D-01 0.310D+00
 Coeff-Com:  0.577D+00
 Coeff:     -0.409D-06 0.259D-03 0.117D-03 0.196D-03 0.120D-03-0.286D-02
 Coeff:     -0.557D-02-0.774D-02-0.665D-02 0.680D-01 0.670D-01 0.310D+00
 Coeff:      0.577D+00
 Gap=     0.126 Goal=   None    Shift=    0.000
 RMSDP=4.22D-09 MaxDP=1.73D-07 DE= 3.67D-10 OVMax= 6.14D-07

 SCF Done:  E(RPBE1PBE) =  -7517.81950331     A.U. after   13 cycles
            NFock= 13  Conv=0.42D-08     -V/T= 2.1284
 KE= 6.662146511128D+03 PE=-2.480361344924D+04 EE= 7.017529162854D+03
 Leave Link  502 at Tue Mar  6 12:23:22 2018, MaxMem=   536870912 cpu:      2271.0
 (Enter /share/apps//mg09/l701.exe)
 Compute integral first derivatives.
 ... and contract with generalized density number  0.
   1 Symmetry operations used in ECPInt.
 ECPInt:  NShTT=   10440 NPrTT=   41973 LenC2=    9693 LenP2D=   27635.
 LDataN:  DoStor=T MaxTD1= 9 Len=  602
 Leave Link  701 at Tue Mar  6 12:23:39 2018, MaxMem=   536870912 cpu:        67.0
 (Enter /share/apps//mg09/l702.exe)
 L702 exits ... SP integral derivatives will be done elsewhere.
 Leave Link  702 at Tue Mar  6 12:23:39 2018, MaxMem=   536870912 cpu:         0.1
 (Enter /share/apps//mg09/l703.exe)
 Compute integral first derivatives, UseDBF=F ICtDFT=           0.
 Integral derivatives from FoFJK, PRISM(SPDF).
 Calling FoFJK, ICntrl=      2127 FMM=F ISym2X=0 I1Cent= 0 IOpClX= 0 NMat=1 NMatS=1 NMatT=0.
 FoFJK:  IHMeth= 1 ICntrl=    2127 DoSepK=F KAlg= 0 I1Cent=   0 FoldK=F
 IRaf=         0 NMat=   1 IRICut=       1 DoRegI=T DoRafI=F ISym2E= 0.
 FoFCou: FMM=F IPFlag=           0 FMFlag=      100000 FMFlg1=         800
         NFxFlg=           0 DoJE=F BraDBF=F KetDBF=F FulRan=T
         wScrn=  0.000000 ICntrl=    2127 IOpCl=  0 I1Cent=           0 NGrid=           0
         NMat0=    1 NMatS0=      1 NMatT0=    0 NMatD0=    1 NMtDS0=    0 NMtDT0=    0
 Symmetry not used in FoFCou.
 Defaulting to unpruned grid for atomic number  83.
 Defaulting to unpruned grid for atomic number  83.
 Defaulting to unpruned grid for atomic number  83.
 Defaulting to unpruned grid for atomic number  83.
 Leave Link  703 at Tue Mar  6 12:26:55 2018, MaxMem=   536870912 cpu:       781.6
 (Enter /share/apps//mg09/l716.exe)
 Dipole        =-1.25895901D-01 5.49973945D-01 1.04940140D-01
 ***** Axes restored to original set *****
 -------------------------------------------------------------------
 Center     Atomic                   Forces (Hartrees/Bohr)
 Number     Number              X              Y              Z
 -------------------------------------------------------------------
      1       32          -0.004967218   -0.004283680   -0.005316009
      2       83          -0.003602618    0.000781316    0.000150205
      3       32           0.002582724   -0.007313663    0.003497700
      4       83          -0.001113936    0.001330020    0.001799136
      5       32          -0.001853557    0.002680976    0.006111333
      6       83          -0.000227602    0.001185061   -0.000629363
      7       50           0.001495092    0.004774433   -0.003395307
      8       83           0.002352657    0.001897036    0.000007821
      9       50           0.005334458   -0.001051499   -0.002225517
 -------------------------------------------------------------------
 Cartesian Forces:  Max     0.007313663 RMS     0.003297402
 Leave Link  716 at Tue Mar  6 12:26:55 2018, MaxMem=   536870912 cpu:         0.1
 (Enter /share/apps//mg09/l103.exe)

 GradGradGradGradGradGradGradGradGradGradGradGradGradGradGradGradGradGrad
 Berny optimization.
 Search for a local minimum.
 Step number   2 out of a maximum of  100
 All quantities printed in internal units (Hartrees-Bohrs-Radians)
 Update second derivatives using D2CorN and points    1    2
 DE= -5.71D-03 DEPred=-4.19D-03 R= 1.36D+00
 TightC=F SS=  1.41D+00  RLast= 2.21D-01 DXNew= 5.0454D-01 6.6390D-01
 Trust test= 1.36D+00 RLast= 2.21D-01 DXMaxT set to 5.05D-01
 ITU=  1  0
     Eigenvalues ---    0.07979   0.09516   0.11449   0.11794   0.13025
     Eigenvalues ---    0.13881   0.14328   0.14707   0.16449   0.16701
     Eigenvalues ---    0.18106   0.22163   0.22725   0.23073   0.24385
     Eigenvalues ---    0.26024   0.27086   0.28068   0.29551   0.29887
     Eigenvalues ---    0.32811
 RFO step:  Lambda=-4.96617169D-04 EMin= 7.97911020D-02
 Quartic linear search produced a step of  0.62762.
 TrRot= -0.000290 -0.000205 -0.000061 -0.703220  0.000090  0.703241
 MatCor failed.
 Variable       Old X    -DE/DX   Delta X   Delta X   Delta X     New X
                                 (Linear)    (Quad)   (Total)
    X1        1.37537  -0.00497  -0.02738  -0.00889  -0.03641   1.33895
    Y1        3.26228  -0.00428  -0.02640  -0.00753  -0.03429   3.22799
    Z1        3.12155  -0.00532  -0.03273  -0.01014  -0.04284   3.07871
    X2        3.70712  -0.00360  -0.03299   0.00318  -0.03027   3.67685
    Y2        2.67450   0.00078  -0.01926   0.01103  -0.00826   2.66624
    Z2       -1.72832   0.00015   0.01528  -0.00688   0.00824  -1.72008
    X3       -1.33938   0.00258   0.00998   0.00456   0.01404  -1.32533
    Y3        4.33644  -0.00731  -0.04220  -0.01289  -0.05522   4.28122
    Z3       -1.78124   0.00350   0.02266   0.00440   0.02733  -1.75391
    X4        3.72864  -0.00111  -0.03119   0.01409  -0.01721   3.71143
    Y4       -1.57193   0.00133   0.01730  -0.00289   0.01416  -1.55776
    Z4        2.09550   0.00180  -0.01140   0.02360   0.01180   2.10730
    X5        0.09769  -0.00185  -0.00898  -0.00996  -0.01956   0.07814
    Y5        0.10396   0.00268   0.01266   0.01168   0.02441   0.12837
[...]
     X                                                          X                                                                    
     X                                                                                                                               
     X                                                                                                                               
     X                                                                                                                               
     X                                                                                                                               
     X                                                                                                                               
     X                                                                                                                               
     X                                                                                                                               
     X                                                                                                                               
     X                                                                                                                               
     X                                                                                                                               
     X                                                                                                                               
     X                                                                                                                               
     X                                                                                                                               
     X                                                                                                                               
 
 ***** Axes restored to original set *****
 -------------------------------------------------------------------
 Center     Atomic                   Forces (Hartrees/Bohr)
 Number     Number              X              Y              Z
 -------------------------------------------------------------------
      1       32          -0.000114689   -0.000033670    0.000069388
      2       83          -0.000051524    0.000018708   -0.000019323
      3       32           0.000121112    0.000069735    0.000106962
      4       83           0.000014425   -0.000043851   -0.000042695
      5       32           0.000028224   -0.000061893   -0.000119707
      6       83          -0.000025529   -0.000000743   -0.000043386
      7       50           0.000050981    0.000105388    0.000056363
      8       83           0.000080914   -0.000037065    0.000070926
      9       50          -0.000103914   -0.000016610   -0.000078528
 -------------------------------------------------------------------
 Cartesian Forces:  Max     0.000121112 RMS     0.000068305
 Force constants in Cartesian coordinates: 
                1             2             3             4             5 
      1  0.680061D-01
      2 -0.702260D-02  0.446101D-01
      3 -0.651486D-02  0.157678D-01  0.518593D-01
      4 -0.113927D-01 -0.151723D-02  0.147318D-01  0.888718D-01
      5  0.364298D-03  0.761966D-03 -0.360949D-02  0.718791D-02  0.457314D-01
      6  0.160472D-01 -0.407566D-02 -0.285916D-01 -0.100898D-01 -0.103082D-01
      7 -0.135585D-02  0.318428D-02 -0.527653D-02 -0.428376D-01  0.122781D-01
      8  0.152099D-02 -0.423728D-02 -0.181073D-02  0.102614D-01 -0.363093D-02
      9 -0.424921D-02  0.288725D-02 -0.762773D-02  0.348129D-02 -0.144376D-03
     10 -0.102741D-01  0.123409D-01 -0.124303D-02 -0.488747D-02  0.189708D-02
     11  0.146471D-01 -0.233775D-01 -0.518186D-02 -0.733621D-03 -0.221444D-01
     12  0.827003D-03 -0.421497D-02  0.842523D-03  0.353357D-02  0.192599D-01
     13 -0.449550D-03  0.205567D-02 -0.537288D-02 -0.220707D-01 -0.115022D-01
     14  0.919766D-03 -0.259043D-02 -0.588247D-02 -0.141102D-01 -0.779047D-02
     15  0.411574D-03  0.355942D-03 -0.547842D-02 -0.108964D-01 -0.910752D-02
     16 -0.481724D-03 -0.672808D-02  0.139653D-02 -0.831283D-03 -0.657839D-02
     17 -0.814503D-03 -0.242138D-02  0.483962D-03  0.119333D-02 -0.648465D-02
     18  0.176191D-02 -0.788825D-02 -0.296302D-02 -0.102738D-02  0.245825D-02
     19 -0.118870D-02 -0.505789D-02  0.217964D-02  0.193764D-02 -0.542447D-02
     20 -0.426550D-02 -0.670497D-02  0.117077D-02 -0.115312D-03 -0.300018D-02
     21  0.480316D-03 -0.155844D-02 -0.341446D-02 -0.372839D-04 -0.779714D-03
     22 -0.192067D-02 -0.510712D-03 -0.124888D-02 -0.571722D-02 -0.112194D-04
     23 -0.434445D-02 -0.638497D-02 -0.428905D-04 -0.190791D-02 -0.209748D-02
     24 -0.653665D-02 -0.896272D-03 -0.480063D-02  0.443324D-03  0.274953D-02
     25 -0.409428D-01  0.325566D-02  0.134826D-02 -0.307248D-02  0.178897D-02
     26 -0.100514D-02  0.344416D-03 -0.895117D-03 -0.258334D-03 -0.134525D-02
     27 -0.222725D-02 -0.377438D-03  0.174003D-03 -0.139088D-03 -0.518364D-03
                6             7             8             9            10 
      6  0.670769D-01
      7  0.286318D-02  0.657404D-01
      8  0.357491D-02 -0.853156D-02  0.567731D-01
      9  0.671205D-03 -0.131304D-01 -0.867440D-02  0.452545D-01
     10  0.315786D-03  0.107367D-02  0.399582D-03 -0.156773D-03  0.798098D-01
     11  0.220322D-01  0.754485D-02 -0.541597D-02  0.329500D-02 -0.650462D-02
     12 -0.175653D-01 -0.507051D-02 -0.355187D-03 -0.381803D-02  0.122268D-01
     13 -0.126476D-01  0.250084D-02  0.350779D-02  0.410448D-02 -0.498430D-03
     14 -0.122591D-01  0.485519D-02 -0.110710D-01 -0.710632D-02 -0.382068D-03
     15 -0.146275D-01  0.218743D-02 -0.559198D-02 -0.999596D-02  0.107392D-02
     16 -0.206469D-02 -0.316679D-02  0.308422D-02 -0.471310D-03 -0.214423D-01
     17 -0.598492D-03 -0.138876D-02 -0.674540D-02 -0.112146D-02 -0.104742D-01
     18 -0.942964D-03  0.778334D-03  0.523613D-02  0.114123D-02 -0.184669D-01
     19  0.740980D-02 -0.259215D-02  0.205485D-03 -0.349155D-02 -0.356730D-01
     20  0.181104D-02 -0.380550D-02 -0.430745D-02  0.414128D-02 -0.387300D-03
     21 -0.390650D-02 -0.429935D-03  0.829965D-03 -0.369620D-02  0.980207D-02
     22 -0.242703D-02 -0.101889D-01 -0.898342D-02  0.548976D-04 -0.473789D-02
     23 -0.120469D-02 -0.106235D-01 -0.198702D-01  0.914554D-04  0.281701D-02
     24  0.129946D-02  0.175876D-02  0.205936D-02  0.205151D-02 -0.196485D-02
     25  0.593145D-03 -0.917359D-02 -0.146449D-02  0.138586D-01 -0.337027D-02
     26  0.102798D-02 -0.351301D-02 -0.149495D-02  0.663158D-02  0.293613D-03
     27 -0.341372D-02  0.163197D-01  0.473193D-02 -0.239805D-01 -0.158700D-02
               11            12            13            14            15 
     11  0.643263D-01
     12 -0.791942D-02  0.460086D-01
     13 -0.656682D-03 -0.602069D-02  0.510201D-01
     14 -0.109521D-02  0.388440D-02  0.133021D-01  0.448862D-01
     15 -0.364494D-03 -0.415006D-02 -0.685880D-02  0.188564D-02  0.731283D-01
     16 -0.974039D-02 -0.166377D-01 -0.135669D-02  0.233823D-02  0.249932D-03
     17 -0.121275D-01 -0.144057D-01  0.412769D-03 -0.222166D-01  0.125803D-01
     18 -0.139848D-01 -0.160151D-01  0.187616D-02  0.134646D-01 -0.156085D-01
     19 -0.244779D-03  0.100536D-01 -0.282105D-02 -0.125079D-03 -0.782541D-03
     20 -0.138491D-02  0.193449D-02 -0.538801D-03  0.237445D-02 -0.139699D-02
     21  0.368204D-02 -0.261799D-02  0.309748D-02  0.598769D-02 -0.471402D-02
     22 -0.404309D-02 -0.369337D-03 -0.261498D-01 -0.696606D-02  0.149704D-01
     23  0.366908D-02  0.391164D-02 -0.699843D-02 -0.430955D-03  0.127573D-02
     24 -0.116635D-02 -0.145535D-02  0.175649D-01  0.101941D-03 -0.156476D-01
     25 -0.268803D-03  0.145730D-02 -0.174661D-03  0.168192D-03 -0.355532D-03
     26 -0.244984D-02 -0.209518D-02  0.417860D-03 -0.206601D-02  0.363401D-03
     27 -0.392386D-03 -0.122931D-02  0.425691D-02 -0.763628D-04 -0.290621D-02
               16            17            18            19            20 
     16  0.530605D-01
     17 -0.126938D-01  0.778750D-01
     18  0.126345D-01  0.117270D-01  0.522529D-01
     19  0.301445D-03  0.323403D-02  0.566693D-02  0.518765D-01
     20  0.417827D-02 -0.683716D-02 -0.484015D-02 -0.720699D-02  0.445228D-01
     21  0.769163D-02 -0.682871D-02 -0.174503D-01 -0.147821D-01 -0.118197D-01
     22 -0.263332D-01  0.215720D-01 -0.354781D-02 -0.579462D-02  0.788544D-03
     23  0.222275D-01 -0.193394D-01 -0.402355D-02  0.110266D-02  0.159681D-02
     24 -0.441294D-02 -0.130967D-02 -0.523843D-03 -0.418150D-02  0.347006D-02
     25  0.250053D-03 -0.104089D-02  0.324221D-03 -0.604611D-02  0.113526D-01
     26  0.391247D-02 -0.170292D-02 -0.214930D-02  0.135170D-01 -0.262594D-01
     27  0.161401D-02 -0.527270D-03  0.109593D-03 -0.207224D-02  0.552919D-02
               21            22            23            24            25 
     21  0.489429D-01
     22 -0.539435D-02  0.847717D-01
     23  0.587712D-02 -0.103885D-02  0.571664D-01
     24 -0.113584D-01  0.955167D-04  0.129813D-01  0.512249D-01
     25 -0.427800D-03 -0.392938D-02 -0.123396D-02 -0.276658D-02  0.664593D-01
     26  0.460972D-02 -0.807211D-03 -0.143093D-01 -0.179899D-01 -0.125573D-01
     27 -0.178504D-02 -0.213342D-02 -0.188661D-01 -0.207900D-01 -0.140316D-01
               26            27 
     26  0.492832D-01
     27  0.104968D-01  0.538213D-01
 Leave Link  716 at Tue Mar  6 14:32:22 2018, MaxMem=   536870912 cpu:         0.1
 (Enter /share/apps//mg09/l103.exe)

 GradGradGradGradGradGradGradGradGradGradGradGradGradGradGradGradGradGrad
 Berny optimization.
 Search for a local minimum.
 Step number   1 out of a maximum of    2
 All quantities printed in internal units (Hartrees-Bohrs-Radians)
 Second derivative matrix not updated -- analytic derivatives used.
 ITU=  0
     Eigenvalues ---    0.01192   0.01883   0.02405   0.03974   0.04251
     Eigenvalues ---    0.04571   0.05131   0.05579   0.05792   0.06316
     Eigenvalues ---    0.06622   0.07524   0.07981   0.08387   0.09374
     Eigenvalues ---    0.10145   0.11813   0.12205   0.13716   0.14155
     Eigenvalues ---    0.15166
 Angle between quadratic step and forces=  32.05 degrees.
 Linear search not attempted -- first point.
 TrRot= -0.000003 -0.000061  0.000082 -0.000008 -0.000022 -0.000008
 MatCor failed.
 Variable       Old X    -DE/DX   Delta X   Delta X   Delta X     New X
                                 (Linear)    (Quad)   (Total)
    X1        1.31018  -0.00011   0.00000  -0.00320  -0.00322   1.30696
    Y1        3.18767  -0.00003   0.00000  -0.00278  -0.00286   3.18481
    Z1        3.03926   0.00007   0.00000   0.00215   0.00226   3.04152
    X2        3.70296  -0.00005   0.00000  -0.00076  -0.00069   3.70227
    Y2        2.67532   0.00002   0.00000   0.00092   0.00080   2.67613
    Z2       -1.72920  -0.00002   0.00000  -0.00072  -0.00056  -1.72976
    X3       -1.29536   0.00012   0.00000   0.00296   0.00306  -1.29229
    Y3        4.23593   0.00007   0.00000   0.00213   0.00209   4.23802
    Z3       -1.72866   0.00011   0.00000   0.00303   0.00309  -1.72557
    X4        3.73065   0.00001   0.00000   0.00120   0.00113   3.73178
    Y4       -1.56708  -0.00004   0.00000  -0.00161  -0.00173  -1.56880
    Z4        2.13478  -0.00004   0.00000  -0.00393  -0.00376   2.13102
    X5        0.04868   0.00003   0.00000   0.00047   0.00058   0.04925
    Y5        0.16294  -0.00006   0.00000  -0.00156  -0.00163   0.16131
    Z5       -4.74197  -0.00012   0.00000  -0.00124  -0.00116  -4.74313
    X6        0.11732  -0.00003   0.00000  -0.00196  -0.00199   0.11533
    Y6       -4.14876   0.00000   0.00000  -0.00116  -0.00122  -4.14998
    Z6       -1.43139  -0.00004   0.00000  -0.00044  -0.00036  -1.43175
    X7       -1.63542   0.00005   0.00000   0.00432   0.00421  -1.63121
    Y7       -1.95565   0.00011   0.00000   0.00537   0.00534  -1.95032
    Z7        3.78578   0.00006   0.00000   0.00387   0.00392   3.78970
    X8       -4.24210   0.00008   0.00000   0.00141   0.00143  -4.24066
    Y8       -0.49954  -0.00004   0.00000  -0.00080  -0.00080  -0.50033
    Z8       -1.59762   0.00007   0.00000  -0.00028  -0.00029  -1.59792
    X9       -3.87742  -0.00010   0.00000  -0.00449  -0.00451  -3.88193
    Y9        3.10709  -0.00002   0.00000   0.00000   0.00000   3.10708
    Z9        2.78227  -0.00008   0.00000  -0.00313  -0.00313   2.77914
         Item               Value     Threshold  Converged?
 Maximum Force            0.000121     0.000450     YES
 RMS     Force            0.000068     0.000300     YES
 Maximum Displacement     0.005339     0.001800     NO 
 RMS     Displacement     0.002517     0.001200     NO 
 Predicted change in Energy=-1.973959D-06
 GradGradGradGradGradGradGradGradGradGradGradGradGradGradGradGradGradGrad

 Leave Link  103 at Tue Mar  6 14:32:22 2018, MaxMem=   536870912 cpu:         0.1
 (Enter /share/apps//mg09/l9999.exe)
 1\1\GINC-COMPUTE-0-4\Freq\RPBE1PBE\def2TZVP\Bi4Ge3Sn2\RODRIGO\06-Mar-2
 018\0\\#P Geom=AllCheck Guess=TCheck SCRF=Check GenChk RPBE1PBE/def2TZ
 VP Freq\\01Final_coords.xyz_19\\0,1\Ge,0.6933159198,1.6868416007,1.608
 3084711\Bi,1.9595201174,1.4157207063,-0.9150531136\Ge,-0.6854723896,2.
 2415579012,-0.9147670073\Bi,1.974177114,-0.8292612403,1.1296772617\Ge,
 0.025758245,0.0862236535,-2.5093435262\Bi,0.0620828586,-2.1954269023,-
 0.7574593392\Sn,-0.8654268841,-1.0348877542,2.0033503315\Bi,-2.2448201
 609,-0.2643441855,-0.8454258519\Sn,-2.0518428203,1.6442002208,1.472313
 7738\\Version=ES64L-G09RevD.01\State=1-A\HF=-7517.8213741\RMSD=6.871e-
 09\RMSF=6.831e-05\ZeroPoint=0.0058408\Thermal=0.0232906\Dipole=0.13047
 89,-0.5603635,0.0940447\DipoleDeriv=-0.1166359,0.0936002,0.0385915,0.0
 803699,-0.0331708,-0.000818,0.0450602,-0.0175729,-0.0366696,0.0145031,
 0.0470051,-0.0829903,0.0443475,0.0622531,-0.0676586,0.0312165,-0.00478
 37,-0.1217561,-0.0529352,0.0017472,0.0748851,0.0463931,0.0230121,-0.05
 17851,0.0060254,-0.016205,-0.0823789,0.001741,-0.0680419,0.0545971,-0.
 0198552,-0.0974339,0.0151806,0.0633587,-0.0013344,0.0240202,-0.1177394
 ,-0.0239621,0.0718737,-0.0275028,-0.0893478,0.0078207,-0.003528,-0.011
 3751,0.0881207,-0.0339668,0.0653681,-0.0026678,-0.0054333,0.0026218,0.
 0905933,-0.0359258,0.0200057,-0.1339161,0.0240444,0.0801476,-0.0590394
 ,0.05239,0.0804278,-0.1165399,0.0018356,-0.0991602,0.1959687,0.0683635
 ,0.0437109,0.1024129,0.0185887,-0.0327248,-0.0284623,0.038466,-0.02287
 14,0.0076299,0.2126253,-0.2395751,-0.1976627,-0.1892978,0.0843625,0.15
 16693,-0.1465085,0.153297,0.0589812\Polar=384.671762,-7.7514,375.03856
 93,-11.7869012,0.7738409,373.1713461\PG=C01 [X(Bi4Ge3Sn2)]\NImag=0\\0.
 06800611,-0.00702260,0.04461014,-0.00651486,0.01576783,0.05185929,-0.0
 1139269,-0.00151723,0.01473175,0.08887184,0.00036430,0.00076197,-0.003
 60949,0.00718791,0.04573143,0.01604717,-0.00407566,-0.02859155,-0.0100
 8979,-0.01030822,0.06707691,-0.00135585,0.00318428,-0.00527653,-0.0428
 3759,0.01227806,0.00286318,0.06574037,0.00152099,-0.00423728,-0.001810
 73,0.01026141,-0.00363093,0.00357491,-0.00853156,0.05677315,-0.0042492
 1,0.00288725,-0.00762773,0.00348129,-0.00014438,0.00067121,-0.01313042
 ,-0.00867440,0.04525452,-0.01027411,0.01234089,-0.00124303,-0.00488747
 ,0.00189708,0.00031579,0.00107367,0.00039958,-0.00015677,0.07980979,0.
 01464713,-0.02337748,-0.00518186,-0.00073362,-0.02214444,0.02203224,0.
 00754485,-0.00541597,0.00329500,-0.00650462,0.06432630,0.00082700,-0.0
 0421497,0.00084252,0.00353357,0.01925991,-0.01756535,-0.00507051,-0.00
 035519,-0.00381803,0.01222679,-0.00791942,0.04600863,-0.00044955,0.002
 05567,-0.00537288,-0.02207074,-0.01150224,-0.01264757,0.00250084,0.003
 50779,0.00410448,-0.00049843,-0.00065668,-0.00602069,0.05102005,0.0009
 1977,-0.00259043,-0.00588247,-0.01411023,-0.00779047,-0.01225912,0.004
 85519,-0.01107096,-0.00710632,-0.00038207,-0.00109521,0.00388440,0.013
 30206,0.04488617,0.00041157,0.00035594,-0.00547842,-0.01089640,-0.0091
 0752,-0.01462749,0.00218743,-0.00559198,-0.00999596,0.00107392,-0.0003
 6449,-0.00415006,-0.00685880,0.00188564,0.07312831,-0.00048172,-0.0067
 2808,0.00139653,-0.00083128,-0.00657839,-0.00206469,-0.00316679,0.0030
 8422,-0.00047131,-0.02144230,-0.00974039,-0.01663771,-0.00135669,0.002
 33823,0.00024993,0.05306050,-0.00081450,-0.00242138,0.00048396,0.00119
 333,-0.00648465,-0.00059849,-0.00138876,-0.00674540,-0.00112146,-0.010
 47418,-0.01212752,-0.01440568,0.00041277,-0.02221659,0.01258028,-0.012
 69381,0.07787501,0.00176191,-0.00788825,-0.00296302,-0.00102738,0.0024
 5825,-0.00094296,0.00077833,0.00523613,0.00114123,-0.01846691,-0.01398
 477,-0.01601507,0.00187616,0.01346460,-0.01560852,0.01263455,0.0117270
 4,0.05225290,-0.00118870,-0.00505789,0.00217964,0.00193764,-0.00542447
 ,0.00740980,-0.00259215,0.00020548,-0.00349155,-0.03567299,-0.00024478
 ,0.01005358,-0.00282105,-0.00012508,-0.00078254,0.00030145,0.00323403,
 0.00566693,0.05187654,-0.00426550,-0.00670497,0.00117077,-0.00011531,-
 0.00300018,0.00181104,-0.00380550,-0.00430745,0.00414128,-0.00038730,-
 0.00138491,0.00193449,-0.00053880,0.00237445,-0.00139699,0.00417827,-0
 .00683716,-0.00484015,-0.00720699,0.04452281,0.00048032,-0.00155844,-0
 .00341446,-0.00003728,-0.00077971,-0.00390650,-0.00042993,0.00082996,-
 0.00369620,0.00980207,0.00368204,-0.00261799,0.00309748,0.00598769,-0.
 00471402,0.00769163,-0.00682871,-0.01745030,-0.01478213,-0.01181968,0.
 04894287,-0.00192067,-0.00051071,-0.00124888,-0.00571722,-0.00001122,-
 0.00242703,-0.01018890,-0.00898342,0.00005490,-0.00473789,-0.00404309,
 -0.00036934,-0.02614977,-0.00696606,0.01497041,-0.02633320,0.02157202,
 -0.00354781,-0.00579462,0.00078854,-0.00539435,0.08477166,-0.00434445,
 -0.00638497,-0.00004289,-0.00190791,-0.00209748,-0.00120469,-0.0106235
 5,-0.01987021,0.00009146,0.00281701,0.00366908,0.00391164,-0.00699843,
 -0.00043096,0.00127573,0.02222748,-0.01933939,-0.00402355,0.00110266,0
 .00159681,0.00587712,-0.00103885,0.05716638,-0.00653665,-0.00089627,-0
 .00480063,0.00044332,0.00274953,0.00129946,0.00175876,0.00205936,0.002
 05151,-0.00196485,-0.00116635,-0.00145535,0.01756492,0.00010194,-0.015
 64763,-0.00441294,-0.00130967,-0.00052384,-0.00418150,0.00347006,-0.01
 135836,0.00009552,0.01298128,0.05122489,-0.04094282,0.00325566,0.00134
 826,-0.00307248,0.00178897,0.00059315,-0.00917359,-0.00146449,0.013858
 60,-0.00337027,-0.00026880,0.00145730,-0.00017466,0.00016819,-0.000355
 53,0.00025005,-0.00104089,0.00032422,-0.00604611,0.01135259,-0.0004278
 0,-0.00392938,-0.00123396,-0.00276658,0.06645926,-0.00100514,0.0003444
 2,-0.00089512,-0.00025833,-0.00134525,0.00102798,-0.00351301,-0.001494
 95,0.00663158,0.00029361,-0.00244984,-0.00209518,0.00041786,-0.0020660
 1,0.00036340,0.00391247,-0.00170292,-0.00214930,0.01351703,-0.02625940
 ,0.00460972,-0.00080721,-0.01430925,-0.01798989,-0.01255727,0.04928322
 ,-0.00222725,-0.00037744,0.00017400,-0.00013909,-0.00051836,-0.0034137
 2,0.01631969,0.00473193,-0.02398053,-0.00158700,-0.00039239,-0.0012293
 1,0.00425691,-0.00007636,-0.00290621,0.00161401,-0.00052727,0.00010959
 ,-0.00207224,0.00552919,-0.00178504,-0.00213342,-0.01886610,-0.0207900
 4,-0.01403161,0.01049680,0.05382125\\0.00011469,0.00003367,-0.00006939
 ,0.00005152,-0.00001871,0.00001932,-0.00012111,-0.00006974,-0.00010696
 ,-0.00001443,0.00004385,0.00004270,-0.00002822,0.00006189,0.00011971,0
 .00002553,0.00000074,0.00004339,-0.00005098,-0.00010539,-0.00005636,-0
 .00008091,0.00003706,-0.00007093,0.00010391,0.00001661,0.00007853\\\@


 IT IS BETTER TO THINK YOU ARE HALF DRY THAN TO KNOW YOU
 ARE ALL WET.  -- SNOOPY
 Job cpu time:       0 days  3 hours 47 minutes 26.1 seconds.
 File lengths (MBytes):  RWF=    299 Int=      0 D2E=      0 Chk=     16 Scr=      1
 Normal termination of Gaussian 09 at Tue Mar  6 14:32:24 2018.
