 Entering Gaussian System, Link 0=/share/apps/mg09/g09
 Initial command:
 /share/apps//mg09/l1.exe "/state/partition1/gauss_tmp/Gau-18940.inp" -scrdir="/state/partition1/gauss_tmp/"
 Entering Link 1 = /share/apps//mg09/l1.exe PID=     18950.
  
 Copyright (c) 1988,1990,1992,1993,1995,1998,2003,2009,2013,
            Gaussian, Inc.  All Rights Reserved.
  
 This is part of the Gaussian(R) 09 program.  It is based on
 the Gaussian(R) 03 system (copyright 2003, Gaussian, Inc.),
 the Gaussian(R) 98 system (copyright 1998, Gaussian, Inc.),
 the Gaussian(R) 94 system (copyright 1995, Gaussian, Inc.),
 the Gaussian 92(TM) system (copyright 1992, Gaussian, Inc.),
 the Gaussian 90(TM) system (copyright 1990, Gaussian, Inc.),
 the Gaussian 88(TM) system (copyright 1988, Gaussian, Inc.),
 the Gaussian 86(TM) system (copyright 1986, Carnegie Mellon
 University), and the Gaussian 82(TM) system (copyright 1983,
 Carnegie Mellon University). Gaussian is a federally registered
 trademark of Gaussian, Inc.
  
 This software contains proprietary and confidential information,
 including trade secrets, belonging to Gaussian, Inc.
  
 This software is provided under written license and may be
 used, copied, transmitted, or stored only in accord with that
 written license.
  
 The following legend is applicable only to US Government
 contracts under FAR:
  
                    RESTRICTED RIGHTS LEGEND
  
 Use, reproduction and disclosure by the US Government is
 subject to restrictions as set forth in subparagraphs (a)
 and (c) of the Commercial Computer Software - Restricted
 Rights clause in FAR 52.227-19.
  
 Gaussian, Inc.
 340 Quinnipiac St., Bldg. 40, Wallingford CT 06492
  
  
 ---------------------------------------------------------------
 Warning -- This program may not be used in any manner that
 competes with the business of Gaussian, Inc. or will provide
 assistance to any competitor of Gaussian, Inc.  The licensee
 of this program is prohibited from giving any competitor of
 Gaussian, Inc. access to this program.  By using this program,
 the user acknowledges that Gaussian, Inc. is engaged in the
 business of creating and licensing software in the field of
 computational chemistry and represents and warrants to the
 licensee that it is not a competitor of Gaussian, Inc. and that
 it will not use this program in any manner prohibited above.
 ---------------------------------------------------------------
  

 Cite this work as:
 Gaussian 09, Revision D.01,
 M. J. Frisch, G. W. Trucks, H. B. Schlegel, G. E. Scuseria, 
 M. A. Robb, J. R. Cheeseman, G. Scalmani, V. Barone, B. Mennucci, 
 G. A. Petersson, H. Nakatsuji, M. Caricato, X. Li, H. P. Hratchian, 
 A. F. Izmaylov, J. Bloino, G. Zheng, J. L. Sonnenberg, M. Hada, 
 M. Ehara, K. Toyota, R. Fukuda, J. Hasegawa, M. Ishida, T. Nakajima, 
 Y. Honda, O. Kitao, H. Nakai, T. Vreven, J. A. Montgomery, Jr., 
 J. E. Peralta, F. Ogliaro, M. Bearpark, J. J. Heyd, E. Brothers, 
 K. N. Kudin, V. N. Staroverov, T. Keith, R. Kobayashi, J. Normand, 
 K. Raghavachari, A. Rendell, J. C. Burant, S. S. Iyengar, J. Tomasi, 
 M. Cossi, N. Rega, J. M. Millam, M. Klene, J. E. Knox, J. B. Cross, 
 V. Bakken, C. Adamo, J. Jaramillo, R. Gomperts, R. E. Stratmann, 
 O. Yazyev, A. J. Austin, R. Cammi, C. Pomelli, J. W. Ochterski, 
 R. L. Martin, K. Morokuma, V. G. Zakrzewski, G. A. Voth, 
 P. Salvador, J. J. Dannenberg, S. Dapprich, A. D. Daniels, 
 O. Farkas, J. B. Foresman, J. V. Ortiz, J. Cioslowski, 
 and D. J. Fox, Gaussian, Inc., Wallingford CT, 2013.
 
 ******************************************
 Gaussian 09:  ES64L-G09RevD.01 24-Apr-2013
                 6-Mar-2018 
 ******************************************
 %NProcShared=4
 Will use up to    4 processors via shared memory.
 %LindaWorkers=compute-0-1
 %chk=Isomer_21.chk
 %NProc=4
 Will use up to    4 processors via shared memory.
 %mem=4GB
 SetLPE:  input flags=" -vv -opt "Tsnet.Node.lindarsharg: ssh" "
 SetLPE:    new flags=" -vv -opt "Tsnet.Node.lindarsharg: ssh"  -nodelist 'compute-0-1.local'"
 Will use up to    1 processors via Linda.
 ----------------------------------------------------------------------
 #p PBE1PBE/Def2TZVP scf=(maxcycle=768) opt=(cartesian,maxcycle=512) fr
 eq
 ----------------------------------------------------------------------
 1/6=512,10=7,14=-1,18=10,26=3,38=1/1,3;
 2/12=2,17=6,18=5,29=2,40=1/2;
 3/5=44,7=101,11=2,16=1,25=1,30=1,71=1,74=-13/1,2,3;
 4//1;
 5/5=2,7=768,38=5/2;
 6/7=2,8=2,9=2,10=2,28=1/1;
 7/7=1,29=1/1,2,3,16;
 1/6=512,10=7,14=-1,18=10,26=3/3(2);
 2/29=1/2;
 99/12=1/99;
 2/29=1/2;
 3/5=44,7=101,11=2,16=1,25=1,30=1,71=1,74=-13/1,2,3;
 4/5=5,16=3,69=1/1;
 5/5=2,7=768,38=5/2;
 7/7=1/1,2,3,16;
 1/6=512,14=-1,18=10,26=3/3(-5);
 2/29=1/2;
 6/7=2,8=2,9=2,10=2,19=2,28=1/1;
 99/9=1,12=1/99;
 Leave Link    1 at Tue Mar  6 11:56:29 2018, MaxMem=   536870912 cpu:         0.7
 (Enter /share/apps//mg09/l101.exe)
 ---------------------
 01Final_coords.xyz_21
 ---------------------
 Symbolic Z-matrix:
 Charge =  0 Multiplicity = 1
 32                    0.87857   2.37064   1.57566 
 83                    1.64442  -0.39731   1.54389 
 83                    1.39383  -1.35524  -1.38357 
 50                   -1.44629   0.75061   2.04432 
 83                   -0.81022  -2.01304   0.61178 
 83                   -2.45664   0.13368  -0.77955 
 32                   -0.86356   2.53834  -0.54631 
 32                   -0.26529   0.71471  -2.59793 
 50                    1.98594   1.67919  -1.02806 
 
 NAtoms=      9 NQM=        9 NQMF=       0 NMMI=      0 NMMIF=      0
                NMic=       0 NMicF=      0.
                    Isotopes and Nuclear Properties:
 (Nuclear quadrupole moments (NQMom) in fm**2, nuclear magnetic moments (NMagM)
  in nuclear magnetons)

  Atom         1           2           3           4           5           6           7           8           9
 IAtWgt=          74         209         209         118         209         209          74          74         118
 AtmWgt=  73.9211788 208.9804000 208.9804000 117.9018000 208.9804000 208.9804000  73.9211788  73.9211788 117.9018000
 NucSpn=           0           9           9           0           9           9           0           0           0
 AtZEff=   0.0000000   0.0000000   0.0000000   0.0000000   0.0000000   0.0000000   0.0000000   0.0000000   0.0000000
 NQMom=    0.0000000 -51.6000000 -51.6000000   0.0000000 -51.6000000 -51.6000000   0.0000000   0.0000000   0.0000000
 NMagM=    0.0000000   4.1106000   4.1106000   0.0000000   4.1106000   4.1106000   0.0000000   0.0000000   0.0000000
 AtZNuc=  32.0000000  83.0000000  83.0000000  50.0000000  83.0000000  83.0000000  32.0000000  32.0000000  50.0000000
 Leave Link  101 at Tue Mar  6 11:56:38 2018, MaxMem=   536870912 cpu:         0.5
 (Enter /share/apps//mg09/l103.exe)

 GradGradGradGradGradGradGradGradGradGradGradGradGradGradGradGradGradGrad
 Berny optimization.
 Initialization pass.
 No Z-matrix variables, so optimization will use Cartesian coordinates.
 Trust Radius=3.00D-01 FncErr=1.00D-07 GrdErr=1.00D-06
 Number of steps in this run=    100 maximum allowed number of steps=    100.
 GradGradGradGradGradGradGradGradGradGradGradGradGradGradGradGradGradGrad

 Leave Link  103 at Tue Mar  6 11:56:54 2018, MaxMem=   536870912 cpu:         0.1
 (Enter /share/apps//mg09/l202.exe)
 ---------------------------------------------------------------------------------------------------
                            Z-MATRIX (ANGSTROMS AND DEGREES)
   CD    Cent   Atom    N1       Length/X        N2       Alpha/Y        N3        Beta/Z          J
 ---------------------------------------------------------------------------------------------------
      1      1  Ge       0   0.878567          2.370636          1.575661
      2      2  Bi       0   1.644422         -0.397308          1.543887
      3      3  Bi       0   1.393830         -1.355235         -1.383573
      4      4  Sn       0  -1.446287          0.750613          2.044323
      5      5  Bi       0  -0.810215         -2.013043          0.611777
      6      6  Bi       0  -2.456635          0.133677         -0.779545
      7      7  Ge       0  -0.863560          2.538344         -0.546310
      8      8  Ge       0  -0.265291          0.714710         -2.597934
      9      9  Sn       0   1.985942          1.679194         -1.028056
 ---------------------------------------------------------------------------------------------------
                         Z-Matrix orientation:                         
 ---------------------------------------------------------------------
 Center     Atomic      Atomic             Coordinates (Angstroms)
 Number     Number       Type             X           Y           Z
 ---------------------------------------------------------------------
      1         32           0        0.878567    2.370636    1.575661
      2         83           0        1.644422   -0.397308    1.543887
      3         83           0        1.393830   -1.355235   -1.383573
      4         50           0       -1.446287    0.750613    2.044323
      5         83           0       -0.810215   -2.013043    0.611777
      6         83           0       -2.456635    0.133677   -0.779545
      7         32           0       -0.863560    2.538344   -0.546310
      8         32           0       -0.265291    0.714710   -2.597934
      9         50           0        1.985942    1.679194   -1.028056
 ---------------------------------------------------------------------
                    Distance matrix (angstroms):
                    1          2          3          4          5
     1  Ge   0.000000
     2  Bi   2.872117   0.000000
     3  Bi   4.785883   3.090379   0.000000
     4  Sn   2.872119   3.334763   4.924564   0.000000
     5  Bi   4.795592   3.082965   3.044987   3.177195   0.000000
     6  Bi   4.655594   4.743306   4.172264   3.061967   3.042184
     7  Ge   2.750617   4.390552   4.577857   3.201083   4.696715
     8  Ge   4.633508   4.694493   2.917538   4.790260   4.247331
     9  Sn   2.912682   3.323159   3.112033   4.699146   4.913264
                    6          7          8          9
     6  Bi   0.000000
     7  Ge   2.893909   0.000000
     8  Ge   2.906222   2.809400   0.000000
     9  Sn   4.710294   3.014943   2.909089   0.000000
 Stoichiometry    Bi4Ge3Sn2
 Framework group  C1[X(Bi4Ge3Sn2)]
 Deg. of freedom    21
 Full point group                 C1      NOp   1
 Largest Abelian subgroup         C1      NOp   1
 Largest concise Abelian subgroup C1      NOp   1
                         Standard orientation:                         
 ---------------------------------------------------------------------
 Center     Atomic      Atomic             Coordinates (Angstroms)
 Number     Number       Type             X           Y           Z
 ---------------------------------------------------------------------
      1         32           0       -0.878566    2.370636   -1.575661
      2         83           0       -1.644422   -0.397307   -1.543887
      3         83           0       -1.393830   -1.355234    1.383573
      4         50           0        1.446287    0.750612   -2.044323
      5         83           0        0.810214   -2.013043   -0.611777
      6         83           0        2.456635    0.133676    0.779545
      7         32           0        0.863561    2.538344    0.546310
      8         32           0        0.265291    0.714710    2.597934
      9         50           0       -1.985941    1.679195    1.028056
 ---------------------------------------------------------------------
 Rotational constants (GHZ):      0.1007257      0.0898587      0.0872477
 Leave Link  202 at Tue Mar  6 11:56:57 2018, MaxMem=   536870912 cpu:         0.1
 (Enter /share/apps//mg09/l301.exe)
 Standard basis: def2TZVP (5D, 7F)
 Ernie: Thresh=  0.10000D-02 Tol=  0.10000D-05 Strict=F.
 There are   519 symmetry adapted cartesian basis functions of A   symmetry.
 There are   444 symmetry adapted basis functions of A   symmetry.
   444 basis functions,   963 primitive gaussians,   519 cartesian basis functions
   116 alpha electrons      116 beta electrons
       nuclear repulsion energy      3555.8434622721 Hartrees.
 IExCor= 1009 DFT=T Ex+Corr=PBE1PBE ExCW=0 ScaHFX=  0.250000
 ScaDFX=  0.750000  0.750000  1.000000  1.000000 ScalE2=  1.000000  1.000000
 IRadAn=      0 IRanWt=     -1 IRanGd=            0 ICorTp=0 IEmpDi=  4
 NAtoms=    9 NActive=    9 NUniq=    9 SFac= 1.00D+00 NAtFMM=   60 NAOKFM=F Big=F
 Integral buffers will be    131072 words long.
 Raffenetti 2 integral format.
 Two-electron integral symmetry is turned on.
 Leave Link  301 at Tue Mar  6 11:57:12 2018, MaxMem=   536870912 cpu:         0.4
 (Enter /share/apps//mg09/l302.exe)
 NPDir=0 NMtPBC=     1 NCelOv=     1 NCel=       1 NClECP=     1 NCelD=      1
         NCelK=      1 NCelE2=     1 NClLst=     1 CellRange=     0.0.
 One-electron integrals computed using PRISM.
   1 Symmetry operations used in ECPInt.
 ECPInt:  NShTT=   10440 NPrTT=   41973 LenC2=    9673 LenP2D=   27439.
 LDataN:  DoStor=T MaxTD1= 8 Len=  415
 NBasis=   444 RedAO= T EigKep=  1.50D-03  NBF=   444
 NBsUse=   444 1.00D-06 EigRej= -1.00D+00 NBFU=   444
 Precomputing XC quadrature grid using
 IXCGrd= 4 IRadAn=           0 IRanWt=          -1 IRanGd=           0 AccXCQ= 0.00D+00.
 Defaulting to unpruned grid for atomic number  50.
 Defaulting to unpruned grid for atomic number  83.
 Defaulting to unpruned grid for atomic number  50.
 Generated NRdTot=       0 NPtTot=           0 NUsed=           0 NTot=          32
 NSgBfM=   501   501   501   501   501 MxSgAt=     9 MxSgA2=     9.
 Leave Link  302 at Tue Mar  6 11:57:31 2018, MaxMem=   536870912 cpu:        30.8
 (Enter /share/apps//mg09/l303.exe)
 DipDrv:  MaxL=1.
 Leave Link  303 at Tue Mar  6 11:57:46 2018, MaxMem=   536870912 cpu:         0.5
 (Enter /share/apps//mg09/l401.exe)
 ExpMin= 4.62D-02 ExpMax= 4.66D+05 ExpMxC= 4.50D+03 IAcc=2 IRadAn=         4 AccDes= 0.00D+00
 Harris functional with IExCor= 1009 and IRadAn=       4 diagonalized for initial guess.
 HarFok:  IExCor= 1009 AccDes= 0.00D+00 IRadAn=         4 IDoV= 1 UseB2=F ITyADJ=14
 ICtDFT=  3500011 ScaDFX=  1.000000  1.000000  1.000000  1.000000
 Defaulting to unpruned grid for atomic number  83.
 Defaulting to unpruned grid for atomic number  83.
 Defaulting to unpruned grid for atomic number  83.
 Defaulting to unpruned grid for atomic number  83.
 FoFCou: FMM=F IPFlag=           0 FMFlag=      100000 FMFlg1=           0
         NFxFlg=           0 DoJE=T BraDBF=F KetDBF=T FulRan=T
         wScrn=  0.000000 ICntrl=     500 IOpCl=  0 I1Cent=   200000004 NGrid=           0
         NMat0=    1 NMatS0=      1 NMatT0=    0 NMatD0=    1 NMtDS0=    0 NMtDT0=    0
 Petite list used in FoFCou.
 Harris En= -7518.62549075324    
 JPrj=0 DoOrth=F DoCkMO=F.
 Leave Link  401 at Tue Mar  6 11:57:59 2018, MaxMem=   536870912 cpu:        13.3
 (Enter /share/apps//mg09/l502.exe)
 Closed shell SCF:
 Using DIIS extrapolation, IDIIS=  1040.
 Integral symmetry usage will be decided dynamically.
 IVT=     1410107 IEndB=     1410107 NGot=   536870912 MDV=   536322046
 LenX=   536322046 LenY=   536052166
 Requested convergence on RMS density matrix=1.00D-08 within 768 cycles.
 Requested convergence on MAX density matrix=1.00D-06.
 Requested convergence on             energy=1.00D-06.
 No special actions if energy rises.
 Fock matrices will be formed incrementally for  20 cycles.

 Cycle   1  Pass 1  IDiag  1:
 FoFJK:  IHMeth= 1 ICntrl=       0 DoSepK=F KAlg= 0 I1Cent=   0 FoldK=F
 IRaf= 880000000 NMat=   1 IRICut=       1 DoRegI=T DoRafI=F ISym2E= 0.
 FoFCou: FMM=F IPFlag=           0 FMFlag=      100000 FMFlg1=           0
         NFxFlg=           0 DoJE=F BraDBF=F KetDBF=F FulRan=T
         wScrn=  0.000000 ICntrl=       0 IOpCl=  0 I1Cent=           0 NGrid=           0
         NMat0=    1 NMatS0=      1 NMatT0=    0 NMatD0=    1 NMtDS0=    0 NMtDT0=    0
 Symmetry not used in FoFCou.
 Defaulting to unpruned grid for atomic number  83.
 Defaulting to unpruned grid for atomic number  83.
 Defaulting to unpruned grid for atomic number  83.
 Defaulting to unpruned grid for atomic number  83.
 E= -7517.15197957892    
 DIIS: error= 2.45D-02 at cycle   1 NSaved=   1.
 NSaved= 1 IEnMin= 1 EnMin= -7517.15197957892     IErMin= 1 ErrMin= 2.45D-02
 ErrMax= 2.45D-02  0.00D+00 EMaxC= 1.00D-01 BMatC= 1.53D+00 BMatP= 1.53D+00
 IDIUse=3 WtCom= 7.55D-01 WtEn= 2.45D-01
 Coeff-Com:  0.100D+01
 Coeff-En:   0.100D+01
 Coeff:      0.100D+01
 Gap=     0.152 Goal=   None    Shift=    0.000
 GapD=    0.152 DampG=1.000 DampE=0.500 DampFc=0.5000 IDamp=-1.
 Damping current iteration by 5.00D-01
 RMSDP=7.00D-03 MaxDP=3.62D-01              OVMax= 8.50D-01

 Cycle   2  Pass 1  IDiag  1:
 RMSU=  3.49D-03    CP:  1.01D+00
 E= -7516.32127894197     Delta-E=        0.830700636947 Rises=F Damp=T
 DIIS: error= 1.73D-02 at cycle   2 NSaved=   2.
 NSaved= 2 IEnMin= 1 EnMin= -7517.15197957892     IErMin= 2 ErrMin= 1.73D-02
 ErrMax= 1.73D-02  0.00D+00 EMaxC= 1.00D-01 BMatC= 5.73D-01 BMatP= 1.53D+00
 IDIUse=3 WtCom= 8.27D-01 WtEn= 1.73D-01
 Coeff-Com:  0.291D+00 0.709D+00
 Coeff-En:   0.723D+00 0.277D+00
 Coeff:      0.366D+00 0.634D+00
 Gap=     0.004 Goal=   None    Shift=    0.000
 RMSDP=4.85D-03 MaxDP=2.11D-01 DE= 8.31D-01 OVMax= 8.53D-01

 Cycle   3  Pass 1  IDiag  1:
 RMSU=  3.57D-03    CP:  1.00D+00  5.70D-02
 E= -7514.66481694601     Delta-E=        1.656461995966 Rises=F Damp=F
 DIIS: error= 4.60D-02 at cycle   3 NSaved=   3.
 NSaved= 3 IEnMin= 1 EnMin= -7517.15197957892     IErMin= 2 ErrMin= 1.73D-02
 ErrMax= 4.60D-02  0.00D+00 EMaxC= 1.00D-01 BMatC= 2.38D+00 BMatP= 5.73D-01
 IDIUse=2 WtCom= 0.00D+00 WtEn= 1.00D+00
 Rare condition: small coef for last iteration:  0.000D+00
 Coeff-En:   0.575D+00 0.272D+00 0.153D+00
 Coeff:      0.575D+00 0.272D+00 0.153D+00
 Gap=     0.214 Goal=   None    Shift=    0.000
 RMSDP=5.73D-03 MaxDP=2.27D-01 DE= 1.66D+00 OVMax= 6.30D-01

 Cycle   4  Pass 1  IDiag  1:
 RMSU=  2.03D-03    CP:  1.01D+00  1.16D+00 -4.32D-02
 E= -7516.16544803821     Delta-E=       -1.500631092207 Rises=F Damp=F
 DIIS: error= 3.16D-02 at cycle   4 NSaved=   4.
 NSaved= 4 IEnMin= 1 EnMin= -7517.15197957892     IErMin= 2 ErrMin= 1.73D-02
 ErrMax= 3.16D-02  0.00D+00 EMaxC= 1.00D-01 BMatC= 1.34D+00 BMatP= 5.73D-01
 IDIUse=2 WtCom= 0.00D+00 WtEn= 1.00D+00
 EnCoef did     8 forward-backward iterations
 Coeff-En:   0.615D+00 0.000D+00 0.415D-01 0.344D+00
 Coeff:      0.615D+00 0.000D+00 0.415D-01 0.344D+00
 Gap=     0.100 Goal=   None    Shift=    0.000
 RMSDP=3.38D-03 MaxDP=1.43D-01 DE=-1.50D+00 OVMax= 4.25D-01

 Cycle   5  Pass 1  IDiag  1:
 RMSU=  1.48D-03    CP:  1.01D+00  4.25D-01  3.33D-01  5.46D-01
 E= -7517.61732443148     Delta-E=       -1.451876393265 Rises=F Damp=F
 DIIS: error= 9.76D-03 at cycle   5 NSaved=   5.
 NSaved= 5 IEnMin= 5 EnMin= -7517.61732443148     IErMin= 5 ErrMin= 9.76D-03
 ErrMax= 9.76D-03  0.00D+00 EMaxC= 1.00D-01 BMatC= 2.92D-01 BMatP= 5.73D-01
 IDIUse=3 WtCom= 9.02D-01 WtEn= 9.76D-02
 EnCoef did     4 forward-backward iterations
 Coeff-Com:  0.405D+00-0.355D+00-0.129D+00 0.377D+00 0.702D+00
 Coeff-En:   0.105D+00 0.000D+00 0.000D+00 0.123D+00 0.772D+00
 Coeff:      0.375D+00-0.320D+00-0.116D+00 0.353D+00 0.709D+00
 Gap=     0.137 Goal=   None    Shift=    0.000
 RMSDP=1.56D-03 MaxDP=6.54D-02 DE=-1.45D+00 OVMax= 1.80D-01

 Cycle   6  Pass 1  IDiag  1:
 RMSU=  7.18D-04    CP:  1.00D+00  4.32D-01  2.99D-02  6.37D-01  4.25D-01
 E= -7517.75036581458     Delta-E=       -0.133041383100 Rises=F Damp=F
 DIIS: error= 5.75D-03 at cycle   6 NSaved=   6.
 NSaved= 6 IEnMin= 6 EnMin= -7517.75036581458     IErMin= 6 ErrMin= 5.75D-03
 ErrMax= 5.75D-03  0.00D+00 EMaxC= 1.00D-01 BMatC= 6.44D-02 BMatP= 2.92D-01
 IDIUse=3 WtCom= 9.43D-01 WtEn= 5.75D-02
 Coeff-Com:  0.983D-01-0.788D-02-0.456D-01 0.105D-01 0.412D+00 0.533D+00
 Coeff-En:   0.000D+00 0.000D+00 0.000D+00 0.000D+00 0.300D+00 0.700D+00
 Coeff:      0.926D-01-0.743D-02-0.430D-01 0.992D-02 0.405D+00 0.543D+00
 Gap=     0.136 Goal=   None    Shift=    0.000
 RMSDP=8.63D-04 MaxDP=3.64D-02 DE=-1.33D-01 OVMax= 1.02D-01

 Cycle   7  Pass 1  IDiag  1:
 RMSU=  4.25D-04    CP:  1.00D+00  3.82D-01  1.12D-01  5.52D-01  6.94D-01
                    CP:  3.03D-01
 E= -7517.79781982541     Delta-E=       -0.047454010835 Rises=F Damp=F
 DIIS: error= 3.60D-03 at cycle   7 NSaved=   7.
 NSaved= 7 IEnMin= 7 EnMin= -7517.79781982541     IErMin= 7 ErrMin= 3.60D-03
 ErrMax= 3.60D-03  0.00D+00 EMaxC= 1.00D-01 BMatC= 1.66D-02 BMatP= 6.44D-02
 IDIUse=3 WtCom= 9.64D-01 WtEn= 3.60D-02
 Coeff-Com:  0.173D-01 0.187D-01-0.827D-02-0.168D-01 0.181D+00 0.404D+00
 Coeff-Com:  0.404D+00
 Coeff-En:   0.000D+00 0.000D+00 0.000D+00 0.000D+00 0.000D+00 0.277D+00
 Coeff-En:   0.723D+00
 Coeff:      0.167D-01 0.180D-01-0.797D-02-0.162D-01 0.175D+00 0.399D+00
 Coeff:      0.415D+00
 Gap=     0.129 Goal=   None    Shift=    0.000
 RMSDP=4.31D-04 MaxDP=1.76D-02 DE=-4.75D-02 OVMax= 5.42D-02

 Cycle   8  Pass 1  IDiag  1:
 RMSU=  2.13D-04    CP:  1.00D+00  3.85D-01  1.07D-01  5.59D-01  6.41D-01
                    CP:  5.79D-01  2.77D-01
 E= -7517.81288944449     Delta-E=       -0.015069619078 Rises=F Damp=F
 DIIS: error= 2.26D-03 at cycle   8 NSaved=   8.
 NSaved= 8 IEnMin= 8 EnMin= -7517.81288944449     IErMin= 8 ErrMin= 2.26D-03
 ErrMax= 2.26D-03  0.00D+00 EMaxC= 1.00D-01 BMatC= 3.86D-03 BMatP= 1.66D-02
 IDIUse=3 WtCom= 9.77D-01 WtEn= 2.26D-02
 Coeff-Com: -0.322D-02 0.144D-01 0.127D-03-0.124D-01 0.709D-01 0.231D+00
 Coeff-Com:  0.342D+00 0.357D+00
 Coeff-En:   0.000D+00 0.000D+00 0.000D+00 0.000D+00 0.000D+00 0.000D+00
 Coeff-En:   0.244D+00 0.756D+00
 Coeff:     -0.314D-02 0.140D-01 0.124D-03-0.121D-01 0.693D-01 0.226D+00
 Coeff:      0.340D+00 0.366D+00
 Gap=     0.124 Goal=   None    Shift=    0.000
 RMSDP=1.82D-04 MaxDP=9.18D-03 DE=-1.51D-02 OVMax= 1.94D-02

 Cycle   9  Pass 1  IDiag  1:
 RMSU=  5.83D-05    CP:  1.00D+00  3.91D-01  1.01D-01  5.62D-01  6.42D-01
                    CP:  5.50D-01  4.86D-01  3.36D-01
 E= -7517.81754572304     Delta-E=       -0.004656278548 Rises=F Damp=F
 DIIS: error= 3.09D-04 at cycle   9 NSaved=   9.
 NSaved= 9 IEnMin= 9 EnMin= -7517.81754572304     IErMin= 9 ErrMin= 3.09D-04
 ErrMax= 3.09D-04  0.00D+00 EMaxC= 1.00D-01 BMatC= 2.19D-04 BMatP= 3.86D-03
 IDIUse=3 WtCom= 9.97D-01 WtEn= 3.09D-03
 Coeff-Com: -0.277D-02 0.359D-02-0.708D-04-0.297D-02 0.210D-01 0.869D-01
 Coeff-Com:  0.161D+00 0.239D+00 0.494D+00
 Coeff-En:   0.000D+00 0.000D+00 0.000D+00 0.000D+00 0.000D+00 0.000D+00
 Coeff-En:   0.000D+00 0.179D-01 0.982D+00
 Coeff:     -0.276D-02 0.358D-02-0.705D-04-0.296D-02 0.210D-01 0.867D-01
 Coeff:      0.160D+00 0.239D+00 0.495D+00
 Gap=     0.124 Goal=   None    Shift=    0.000
 RMSDP=3.75D-05 MaxDP=2.99D-03 DE=-4.66D-03 OVMax= 4.05D-03

 Cycle  10  Pass 1  IDiag  1:
 RMSU=  1.92D-05    CP:  1.00D+00  3.92D-01  1.02D-01  5.66D-01  6.46D-01
                    CP:  5.54D-01  4.85D-01  4.31D-01  6.03D-01
 E= -7517.81773948897     Delta-E=       -0.000193765933 Rises=F Damp=F
 DIIS: error= 9.53D-05 at cycle  10 NSaved=  10.
 NSaved=10 IEnMin=10 EnMin= -7517.81773948897     IErMin=10 ErrMin= 9.53D-05
 ErrMax= 9.53D-05  0.00D+00 EMaxC= 1.00D-01 BMatC= 1.29D-05 BMatP= 2.19D-04
 IDIUse=1 WtCom= 1.00D+00 WtEn= 0.00D+00
 Coeff-Com: -0.130D-02 0.164D-02-0.257D-04-0.968D-03 0.289D-02 0.181D-01
 Coeff-Com:  0.429D-01 0.846D-01 0.255D+00 0.597D+00
 Coeff:     -0.130D-02 0.164D-02-0.257D-04-0.968D-03 0.289D-02 0.181D-01
 Coeff:      0.429D-01 0.846D-01 0.255D+00 0.597D+00
 Gap=     0.124 Goal=   None    Shift=    0.000
 RMSDP=1.51D-05 MaxDP=8.56D-04 DE=-1.94D-04 OVMax= 2.00D-03

 Cycle  11  Pass 1  IDiag  1:
 RMSU=  1.14D-05    CP:  1.00D+00  3.91D-01  1.02D-01  5.65D-01  6.48D-01
                    CP:  5.53D-01  4.87D-01  4.40D-01  6.73D-01  6.06D-01
 E= -7517.81773991116     Delta-E=       -0.000000422191 Rises=F Damp=F
 DIIS: error= 1.27D-04 at cycle  11 NSaved=  11.
 NSaved=11 IEnMin=11 EnMin= -7517.81773991116     IErMin=10 ErrMin= 9.53D-05
 ErrMax= 1.27D-04  0.00D+00 EMaxC= 1.00D-01 BMatC= 8.23D-06 BMatP= 1.29D-05
 IDIUse=1 WtCom= 1.00D+00 WtEn= 0.00D+00
 Coeff-Com: -0.878D-03 0.124D-02-0.417D-04-0.602D-03-0.507D-03 0.416D-02
 Coeff-Com:  0.147D-01 0.379D-01 0.141D+00 0.455D+00 0.347D+00
 Coeff:     -0.878D-03 0.124D-02-0.417D-04-0.602D-03-0.507D-03 0.416D-02
 Coeff:      0.147D-01 0.379D-01 0.141D+00 0.455D+00 0.347D+00
 Gap=     0.124 Goal=   None    Shift=    0.000
 RMSDP=9.77D-06 MaxDP=4.47D-04 DE=-4.22D-07 OVMax= 1.26D-03

 Cycle  12  Pass 1  IDiag  1:
 RMSU=  3.79D-06    CP:  1.00D+00  3.91D-01  1.02D-01  5.64D-01  6.48D-01
                    CP:  5.53D-01  4.88D-01  4.43D-01  6.72D-01  8.12D-01
                    CP:  3.06D-01
 E= -7517.81774972744     Delta-E=       -0.000009816275 Rises=F Damp=F
 DIIS: error= 2.95D-05 at cycle  12 NSaved=  12.
 NSaved=12 IEnMin=12 EnMin= -7517.81774972744     IErMin=12 ErrMin= 2.95D-05
 ErrMax= 2.95D-05  0.00D+00 EMaxC= 1.00D-01 BMatC= 1.66D-06 BMatP= 8.23D-06
 IDIUse=1 WtCom= 1.00D+00 WtEn= 0.00D+00
 Coeff-Com: -0.425D-03 0.621D-03-0.258D-04-0.118D-03-0.158D-02-0.155D-02
 Coeff-Com: -0.119D-02 0.422D-02 0.421D-01 0.200D+00 0.266D+00 0.492D+00
 Coeff:     -0.425D-03 0.621D-03-0.258D-04-0.118D-03-0.158D-02-0.155D-02
 Coeff:     -0.119D-02 0.422D-02 0.421D-01 0.200D+00 0.266D+00 0.492D+00
 Gap=     0.124 Goal=   None    Shift=    0.000
 RMSDP=3.12D-06 MaxDP=1.60D-04 DE=-9.82D-06 OVMax= 3.24D-04

 Cycle  13  Pass 1  IDiag  1:
 RMSU=  1.34D-06    CP:  1.00D+00  3.91D-01  1.02D-01  5.65D-01  6.48D-01
                    CP:  5.54D-01  4.89D-01  4.45D-01  6.78D-01  8.02D-01
                    CP:  4.74D-01  6.48D-01
 E= -7517.81775169517     Delta-E=       -0.000001967735 Rises=F Damp=F
 DIIS: error= 1.05D-05 at cycle  13 NSaved=  13.
 NSaved=13 IEnMin=13 EnMin= -7517.81775169517     IErMin=13 ErrMin= 1.05D-05
 ErrMax= 1.05D-05  0.00D+00 EMaxC= 1.00D-01 BMatC= 1.63D-07 BMatP= 1.66D-06
 IDIUse=1 WtCom= 1.00D+00 WtEn= 0.00D+00
 Coeff-Com: -0.176D-03 0.273D-03-0.208D-04-0.189D-04-0.767D-03-0.743D-03
 Coeff-Com: -0.218D-02-0.379D-02 0.216D-02 0.278D-01 0.759D-01 0.233D+00
 Coeff-Com:  0.669D+00
 Coeff:     -0.176D-03 0.273D-03-0.208D-04-0.189D-04-0.767D-03-0.743D-03
 Coeff:     -0.218D-02-0.379D-02 0.216D-02 0.278D-01 0.759D-01 0.233D+00
 Coeff:      0.669D+00
 Gap=     0.124 Goal=   None    Shift=    0.000
 RMSDP=1.10D-06 MaxDP=7.11D-05 DE=-1.97D-06 OVMax= 1.24D-04

 Cycle  14  Pass 1  IDiag  1:
 RMSU=  5.92D-07    CP:  1.00D+00  3.91D-01  1.02D-01  5.65D-01  6.48D-01
                    CP:  5.55D-01  4.89D-01  4.45D-01  6.86D-01  8.08D-01
                    CP:  4.80D-01  7.29D-01  8.01D-01
 E= -7517.81775190032     Delta-E=       -0.000000205144 Rises=F Damp=F
 DIIS: error= 2.84D-06 at cycle  14 NSaved=  14.
 NSaved=14 IEnMin=14 EnMin= -7517.81775190032     IErMin=14 ErrMin= 2.84D-06
 ErrMax= 2.84D-06  0.00D+00 EMaxC= 1.00D-01 BMatC= 1.52D-08 BMatP= 1.63D-07
 IDIUse=1 WtCom= 1.00D+00 WtEn= 0.00D+00
 Coeff-Com: -0.521D-04 0.998D-04-0.613D-05-0.144D-04-0.177D-03-0.283D-04
 Coeff-Com: -0.763D-03-0.240D-02-0.504D-02-0.124D-01-0.447D-02 0.317D-01
 Coeff-Com:  0.301D+00 0.692D+00
 Coeff:     -0.521D-04 0.998D-04-0.613D-05-0.144D-04-0.177D-03-0.283D-04
 Coeff:     -0.763D-03-0.240D-02-0.504D-02-0.124D-01-0.447D-02 0.317D-01
 Coeff:      0.301D+00 0.692D+00
 Gap=     0.124 Goal=   None    Shift=    0.000
 RMSDP=4.20D-07 MaxDP=2.23D-05 DE=-2.05D-07 OVMax= 4.30D-05

 Cycle  15  Pass 1  IDiag  1:
 RMSU=  2.21D-07    CP:  1.00D+00  3.91D-01  1.02D-01  5.65D-01  6.48D-01
                    CP:  5.55D-01  4.89D-01  4.44D-01  6.86D-01  8.15D-01
                    CP:  4.83D-01  7.40D-01  9.46D-01  7.02D-01
 E= -7517.81775191597     Delta-E=       -0.000000015649 Rises=F Damp=F
 DIIS: error= 1.90D-06 at cycle  15 NSaved=  15.
 NSaved=15 IEnMin=15 EnMin= -7517.81775191597     IErMin=15 ErrMin= 1.90D-06
 ErrMax= 1.90D-06  0.00D+00 EMaxC= 1.00D-01 BMatC= 3.29D-09 BMatP= 1.52D-08
 IDIUse=1 WtCom= 1.00D+00 WtEn= 0.00D+00
 Coeff-Com: -0.409D-05 0.885D-05-0.389D-05 0.150D-05 0.238D-04 0.154D-03
 Coeff-Com: -0.306D-04-0.841D-03-0.386D-02-0.128D-01-0.169D-01-0.219D-01
 Coeff-Com:  0.642D-01 0.421D+00 0.571D+00
 Coeff:     -0.409D-05 0.885D-05-0.389D-05 0.150D-05 0.238D-04 0.154D-03
 Coeff:     -0.306D-04-0.841D-03-0.386D-02-0.128D-01-0.169D-01-0.219D-01
 Coeff:      0.642D-01 0.421D+00 0.571D+00
 Gap=     0.124 Goal=   None    Shift=    0.000
 RMSDP=1.95D-07 MaxDP=1.07D-05 DE=-1.56D-08 OVMax= 2.01D-05

 Cycle  16  Pass 1  IDiag  1:
 RMSU=  7.17D-08    CP:  1.00D+00  3.92D-01  1.02D-01  5.65D-01  6.48D-01
                    CP:  5.55D-01  4.89D-01  4.45D-01  6.86D-01  8.17D-01
                    CP:  4.85D-01  7.47D-01  9.29D-01  9.02D-01  5.93D-01
 E= -7517.81775192030     Delta-E=       -0.000000004333 Rises=F Damp=F
 DIIS: error= 2.49D-07 at cycle  16 NSaved=  16.
 NSaved=16 IEnMin=16 EnMin= -7517.81775192030     IErMin=16 ErrMin= 2.49D-07
 ErrMax= 2.49D-07  0.00D+00 EMaxC= 1.00D-01 BMatC= 1.62D-10 BMatP= 3.29D-09
 IDIUse=1 WtCom= 1.00D+00 WtEn= 0.00D+00
 Coeff-Com: -0.871D-06 0.215D-05-0.108D-05 0.681D-06 0.199D-04 0.742D-04
 Coeff-Com:  0.630D-04-0.174D-03-0.131D-02-0.455D-02-0.742D-02-0.134D-01
 Coeff-Com:  0.600D-02 0.161D+00 0.304D+00 0.556D+00
 Coeff:     -0.871D-06 0.215D-05-0.108D-05 0.681D-06 0.199D-04 0.742D-04
 Coeff:      0.630D-04-0.174D-03-0.131D-02-0.455D-02-0.742D-02-0.134D-01
 Coeff:      0.600D-02 0.161D+00 0.304D+00 0.556D+00
 Gap=     0.124 Goal=   None    Shift=    0.000
 RMSDP=4.07D-08 MaxDP=2.97D-06 DE=-4.33D-09 OVMax= 3.88D-06

 Cycle  17  Pass 1  IDiag  1:
 RMSU=  2.40D-08    CP:  1.00D+00  3.92D-01  1.02D-01  5.65D-01  6.48D-01
                    CP:  5.55D-01  4.89D-01  4.45D-01  6.86D-01  8.17D-01
                    CP:  4.84D-01  7.48D-01  9.39D-01  8.84D-01  6.71D-01
                    CP:  7.49D-01
 E= -7517.81775192001     Delta-E=        0.000000000284 Rises=F Damp=F
 DIIS: error= 1.07D-07 at cycle  17 NSaved=  17.
 NSaved=17 IEnMin=16 EnMin= -7517.81775192030     IErMin=17 ErrMin= 1.07D-07
 ErrMax= 1.07D-07  0.00D+00 EMaxC= 1.00D-01 BMatC= 2.19D-11 BMatP= 1.62D-10
 IDIUse=1 WtCom= 1.00D+00 WtEn= 0.00D+00
 Coeff-Com: -0.233D-06 0.731D-06-0.331D-06 0.259D-06 0.837D-05 0.237D-04
 Coeff-Com:  0.450D-04 0.216D-04-0.260D-03-0.111D-02-0.210D-02-0.523D-02
 Coeff-Com: -0.524D-02 0.380D-01 0.104D+00 0.307D+00 0.564D+00
 Coeff:     -0.233D-06 0.731D-06-0.331D-06 0.259D-06 0.837D-05 0.237D-04
 Coeff:      0.450D-04 0.216D-04-0.260D-03-0.111D-02-0.210D-02-0.523D-02
 Coeff:     -0.524D-02 0.380D-01 0.104D+00 0.307D+00 0.564D+00
 Gap=     0.124 Goal=   None    Shift=    0.000
 RMSDP=1.39D-08 MaxDP=6.69D-07 DE= 2.84D-10 OVMax= 1.69D-06

 Cycle  18  Pass 1  IDiag  1:
 RMSU=  9.54D-09    CP:  1.00D+00  3.92D-01  1.02D-01  5.65D-01  6.48D-01
                    CP:  5.55D-01  4.89D-01  4.45D-01  6.86D-01  8.16D-01
                    CP:  4.84D-01  7.48D-01  9.40D-01  8.89D-01  6.71D-01
                    CP:  7.95D-01  6.93D-01
 E= -7517.81775192035     Delta-E=       -0.000000000338 Rises=F Damp=F
 DIIS: error= 3.35D-08 at cycle  18 NSaved=  18.
 NSaved=18 IEnMin=18 EnMin= -7517.81775192035     IErMin=18 ErrMin= 3.35D-08
 ErrMax= 3.35D-08  0.00D+00 EMaxC= 1.00D-01 BMatC= 2.22D-12 BMatP= 2.19D-11
 IDIUse=1 WtCom= 1.00D+00 WtEn= 0.00D+00
 Coeff-Com: -0.518D-07 0.356D-07-0.765D-07 0.216D-06 0.165D-05 0.245D-05
 Coeff-Com:  0.161D-04 0.466D-04 0.725D-04 0.182D-03 0.922D-04-0.724D-03
 Coeff-Com: -0.419D-02-0.450D-02 0.579D-02 0.587D-01 0.257D+00 0.688D+00
 Coeff:     -0.518D-07 0.356D-07-0.765D-07 0.216D-06 0.165D-05 0.245D-05
 Coeff:      0.161D-04 0.466D-04 0.725D-04 0.182D-03 0.922D-04-0.724D-03
 Coeff:     -0.419D-02-0.450D-02 0.579D-02 0.587D-01 0.257D+00 0.688D+00
 Gap=     0.124 Goal=   None    Shift=    0.000
 RMSDP=6.15D-09 MaxDP=4.69D-07 DE=-3.38D-10 OVMax= 7.23D-07

 SCF Done:  E(RPBE1PBE) =  -7517.81775192     A.U. after   18 cycles
            NFock= 18  Conv=0.61D-08     -V/T= 2.1285
 KE= 6.661971152508D+03 PE=-2.470329143047D+04 EE= 6.967659063768D+03
 Leave Link  502 at Tue Mar  6 12:15:27 2018, MaxMem=   536870912 cpu:      3820.1
 (Enter /share/apps//mg09/l601.exe)
 Copying SCF densities to generalized density rwf, IOpCl= 0 IROHF=0.

 **********************************************************************

            Population analysis using the SCF density.

 **********************************************************************

 Orbital symmetries:
       Occupied  (A) (A) (A) (A) (A) (A) (A) (A) (A) (A) (A) (A)
                 (A) (A) (A) (A) (A) (A) (A) (A) (A) (A) (A) (A)
                 (A) (A) (A) (A) (A) (A) (A) (A) (A) (A) (A) (A)
                 (A) (A) (A) (A) (A) (A) (A) (A) (A) (A) (A) (A)
                 (A) (A) (A) (A) (A) (A) (A) (A) (A) (A) (A) (A)
                 (A) (A) (A) (A) (A) (A) (A) (A) (A) (A) (A) (A)
                 (A) (A) (A) (A) (A) (A) (A) (A) (A) (A) (A) (A)
                 (A) (A) (A) (A) (A) (A) (A) (A) (A) (A) (A) (A)
                 (A) (A) (A) (A) (A) (A) (A) (A) (A) (A) (A) (A)
                 (A) (A) (A) (A) (A) (A) (A) (A)
       Virtual   (A) (A) (A) (A) (A) (A) (A) (A) (A) (A) (A) (A)
                 (A) (A) (A) (A) (A) (A) (A) (A) (A) (A) (A) (A)
                 (A) (A) (A) (A) (A) (A) (A) (A) (A) (A) (A) (A)
                 (A) (A) (A) (A) (A) (A) (A) (A) (A) (A) (A) (A)
                 (A) (A) (A) (A) (A) (A) (A) (A) (A) (A) (A) (A)
                 (A) (A) (A) (A) (A) (A) (A) (A) (A) (A) (A) (A)
                 (A) (A) (A) (A) (A) (A) (A) (A) (A) (A) (A) (A)
                 (A) (A) (A) (A) (A) (A) (A) (A) (A) (A) (A) (A)
                 (A) (A) (A) (A) (A) (A) (A) (A) (A) (A) (A) (A)
                 (A) (A) (A) (A) (A) (A) (A) (A) (A) (A) (A) (A)
                 (A) (A) (A) (A) (A) (A) (A) (A) (A) (A) (A) (A)
                 (A) (A) (A) (A) (A) (A) (A) (A) (A) (A) (A) (A)
                 (A) (A) (A) (A) (A) (A) (A) (A) (A) (A) (A) (A)
                 (A) (A) (A) (A) (A) (A) (A) (A) (A) (A) (A) (A)
                 (A) (A) (A) (A) (A) (A) (A) (A) (A) (A) (A) (A)
                 (A) (A) (A) (A) (A) (A) (A) (A) (A) (A) (A) (A)
                 (A) (A) (A) (A) (A) (A) (A) (A) (A) (A) (A) (A)
                 (A) (A) (A) (A) (A) (A) (A) (A) (A) (A) (A) (A)
                 (A) (A) (A) (A) (A) (A) (A) (A) (A) (A) (A) (A)
                 (A) (A) (A) (A) (A) (A) (A) (A) (A) (A) (A) (A)
                 (A) (A) (A) (A) (A) (A) (A) (A) (A) (A) (A) (A)
                 (A) (A) (A) (A) (A) (A) (A) (A) (A) (A) (A) (A)
                 (A) (A) (A) (A) (A) (A) (A) (A) (A) (A) (A) (A)
                 (A) (A) (A) (A) (A) (A) (A) (A) (A) (A) (A) (A)
                 (A) (A) (A) (A) (A) (A) (A) (A) (A) (A) (A) (A)
                 (A) (A) (A) (A) (A) (A) (A) (A) (A) (A) (A) (A)
                 (A) (A) (A) (A) (A) (A) (A) (A) (A) (A) (A) (A)
                 (A) (A) (A) (A)
 The electronic state is 1-A.
 Alpha  occ. eigenvalues -- -399.09067-399.08904-399.08687 -49.90633 -49.90518
 Alpha  occ. eigenvalues --  -49.90277 -44.38725 -44.38686 -44.38659 -44.38603
 Alpha  occ. eigenvalues --  -44.38572 -44.38534 -44.38358 -44.38327 -44.38308
 Alpha  occ. eigenvalues --   -6.27137  -6.27031  -6.26783  -6.02760  -6.02565
 Alpha  occ. eigenvalues --   -6.01779  -6.01218  -5.14057  -5.13404  -4.42615
 Alpha  occ. eigenvalues --   -4.42502  -4.42486  -4.42400  -4.42382  -4.42264
 Alpha  occ. eigenvalues --   -4.42236  -4.42122  -4.42059  -3.75055  -3.74964
 Alpha  occ. eigenvalues --   -3.74834  -3.74685  -3.74676  -3.74583  -3.74117
 Alpha  occ. eigenvalues --   -3.73968  -3.73658  -3.73559  -3.73299  -3.73207
 Alpha  occ. eigenvalues --   -3.47376  -3.47153  -3.46988  -3.46742  -3.46479
 Alpha  occ. eigenvalues --   -3.46345  -1.22095  -1.22053  -1.21987  -1.21966
 Alpha  occ. eigenvalues --   -1.21943  -1.21919  -1.21852  -1.21752  -1.21737
 Alpha  occ. eigenvalues --   -1.21677  -1.21660  -1.21649  -1.21576  -1.21489
 Alpha  occ. eigenvalues --   -1.21471  -1.09131  -1.08966  -1.08691  -1.08620
 Alpha  occ. eigenvalues --   -1.08453  -1.08378  -1.08338  -1.08265  -1.08167
 Alpha  occ. eigenvalues --   -1.08110  -1.07672  -1.07542  -1.07374  -1.07304
 Alpha  occ. eigenvalues --   -1.07253  -1.07144  -1.07045  -1.06948  -1.06821
 Alpha  occ. eigenvalues --   -1.06750  -1.03545  -1.03499  -1.03349  -1.03199
 Alpha  occ. eigenvalues --   -1.03148  -1.02926  -1.02859  -1.02734  -1.02561
 Alpha  occ. eigenvalues --   -1.02502  -0.67267  -0.61457  -0.58523  -0.58047
 Alpha  occ. eigenvalues --   -0.51950  -0.47522  -0.43171  -0.42010  -0.39992
 Alpha  occ. eigenvalues --   -0.29306  -0.28032  -0.26292  -0.25771  -0.25372
 Alpha  occ. eigenvalues --   -0.24523  -0.23107  -0.22025  -0.21783  -0.20989
 Alpha  occ. eigenvalues --   -0.20459
 Alpha virt. eigenvalues --   -0.08093  -0.07572  -0.07298  -0.07081  -0.05995
 Alpha virt. eigenvalues --   -0.05748  -0.05270  -0.04805  -0.03845  -0.03069
 Alpha virt. eigenvalues --   -0.02397  -0.02028  -0.01685   0.03949   0.05614
 Alpha virt. eigenvalues --    0.05754   0.06253   0.07929   0.08369   0.09049
 Alpha virt. eigenvalues --    0.09285   0.09433   0.09887   0.09978   0.10507
 Alpha virt. eigenvalues --    0.10865   0.11487   0.11852   0.12175   0.12672
 Alpha virt. eigenvalues --    0.13721   0.15772   0.15926   0.17032   0.17249
 Alpha virt. eigenvalues --    0.17802   0.18300   0.19787   0.20024   0.20341
 Alpha virt. eigenvalues --    0.20817   0.21660   0.22012   0.23505   0.23990
 Alpha virt. eigenvalues --    0.24865   0.26048   0.26830   0.28140   0.28622
 Alpha virt. eigenvalues --    0.29244   0.29505   0.30474   0.31151   0.31437
 Alpha virt. eigenvalues --    0.32039   0.32546   0.32794   0.33162   0.33686
 Alpha virt. eigenvalues --    0.34304   0.34869   0.36379   0.36690   0.37964
 Alpha virt. eigenvalues --    0.38894   0.39854   0.40338   0.40933   0.42515
 Alpha virt. eigenvalues --    0.42784   0.43085   0.43641   0.43791   0.44759
 Alpha virt. eigenvalues --    0.45504   0.46209   0.46504   0.47281   0.47451
 Alpha virt. eigenvalues --    0.48466   0.49514   0.50287   0.50836   0.51120
 Alpha virt. eigenvalues --    0.52658   0.53651   0.54028   0.54559   0.55492
 Alpha virt. eigenvalues --    0.56703   0.57382   0.58061   0.59124   0.59631
 Alpha virt. eigenvalues --    0.59980   0.60879   0.61296   0.62387   0.63395
 Alpha virt. eigenvalues --    0.63733   0.64243   0.64813   0.65423   0.66633
 Alpha virt. eigenvalues --    0.66825   0.67416   0.68097   0.68994   0.69363
 Alpha virt. eigenvalues --    0.69480   0.70594   0.72231   0.73667   0.74162
 Alpha virt. eigenvalues --    0.74628   0.75958   0.77069   0.77144   0.78194
 Alpha virt. eigenvalues --    0.78918   0.79820   0.81296   0.81666   0.82379
 Alpha virt. eigenvalues --    0.82582   0.82698   0.84177   0.84511   0.85448
 Alpha virt. eigenvalues --    0.86153   0.86594   0.87084   0.88788   0.89365
 Alpha virt. eigenvalues --    0.89783   0.91054   0.92435   0.92959   0.93269
 Alpha virt. eigenvalues --    0.94531   0.95282   0.95955   0.96658   0.97677
 Alpha virt. eigenvalues --    0.97862   0.98671   0.98993   1.00202   1.01022
 Alpha virt. eigenvalues --    1.02965   1.04005   1.06032   1.06483   1.08023
 Alpha virt. eigenvalues --    1.09051   1.10210   1.10945   1.11641   1.12728
 Alpha virt. eigenvalues --    1.14315   1.15218   1.16090   1.17009   1.17322
 Alpha virt. eigenvalues --    1.18535   1.18937   1.19493   1.19947   1.20244
 Alpha virt. eigenvalues --    1.20614   1.21408   1.22175   1.22305   1.22482
 Alpha virt. eigenvalues --    1.23349   1.23465   1.23927   1.24264   1.24783
 Alpha virt. eigenvalues --    1.25132   1.25455   1.26100   1.26978   1.27631
 Alpha virt. eigenvalues --    1.27756   1.28432   1.28886   1.29520   1.29933
 Alpha virt. eigenvalues --    1.30821   1.31044   1.31526   1.33622   1.33976
 Alpha virt. eigenvalues --    1.34745   1.35401   1.36293   1.37870   1.39441
 Alpha virt. eigenvalues --    1.39653   1.40852   1.41490   1.41629   1.44491
 Alpha virt. eigenvalues --    1.45306   1.45458   1.46688   1.48134   1.49539
 Alpha virt. eigenvalues --    1.50091   1.50509   1.50969   1.51977   1.52317
 Alpha virt. eigenvalues --    1.53512   1.54758   1.56622   1.58521   1.61048
 Alpha virt. eigenvalues --    1.64494   1.64599   1.67566   1.98705   2.03960
 Alpha virt. eigenvalues --    2.06386   2.08413   2.10053   2.14328   2.15570
 Alpha virt. eigenvalues --    2.16936   2.17730   2.17977   2.18590   2.20136
 Alpha virt. eigenvalues --    2.20523   2.22020   2.23383   2.24173   2.25026
 Alpha virt. eigenvalues --    2.27853   2.28950   2.29538   2.30580   2.33078
 Alpha virt. eigenvalues --    2.34433   2.36134   2.38955   2.39447   2.41001
 Alpha virt. eigenvalues --    2.41122   2.44100   2.44857   2.47868   2.48665
 Alpha virt. eigenvalues --    2.50514   2.51105   2.52703   2.52921   2.53991
 Alpha virt. eigenvalues --    2.55798   2.57705   2.59192   2.62568   2.65412
 Alpha virt. eigenvalues --    2.67653   2.70704   2.71223   2.72933   2.75588
 Alpha virt. eigenvalues --    2.76998   2.78280   2.80496   2.81049   2.82039
 Alpha virt. eigenvalues --    2.82685   2.84134   2.89845   2.93843   2.99262
 Alpha virt. eigenvalues --    3.19170   3.27119   3.29111   3.36228   3.38783
 Alpha virt. eigenvalues --    3.42581   3.98022   3.98828   4.00581   4.02031
 Alpha virt. eigenvalues --    4.04620   4.05687   4.06266   4.08848   4.16462
 Alpha virt. eigenvalues --    5.29552   5.33878   5.37331  35.35953  35.38927
 Alpha virt. eigenvalues --   35.40681  35.42814  35.44529  35.46420  35.47695
 Alpha virt. eigenvalues --   35.48000  35.52529  35.54690  35.59215  35.61619
 Alpha virt. eigenvalues --   35.84122  35.93344  36.01033  36.05956  36.19365
 Alpha virt. eigenvalues --   36.23035  36.96516  37.00132  37.04150  37.06397
 Alpha virt. eigenvalues --   37.09977  37.11431 113.57007 113.59327 120.20812
 Alpha virt. eigenvalues --  120.23327 120.24501 120.25399
          Condensed to atoms (all electrons):
               1          2          3          4          5          6
     1  Ge  31.598819   0.187656  -0.016710   0.179468  -0.015845  -0.016282
     2  Bi   0.187656  22.292099   0.154878   0.080883   0.163375  -0.026805
     3  Bi  -0.016710   0.154878  22.399330  -0.020711   0.180386  -0.025221
     4  Sn   0.179468   0.080883  -0.020711  21.362412   0.111845   0.145785
     5  Bi  -0.015845   0.163375   0.180386   0.111845  22.417382   0.186182
     6  Bi  -0.016282  -0.026805  -0.025221   0.145785   0.186182  22.358355
     7  Ge   0.151896  -0.027714  -0.021446   0.076251  -0.017772   0.152616
     8  Ge  -0.014685  -0.020303   0.188220  -0.013914  -0.017866   0.194373
     9  Sn   0.150852   0.076082   0.121652  -0.017051  -0.017804  -0.019516
               7          8          9
     1  Ge   0.151896  -0.014685   0.150852
     2  Bi  -0.027714  -0.020303   0.076082
     3  Bi  -0.021446   0.188220   0.121652
     4  Sn   0.076251  -0.013914  -0.017051
     5  Bi  -0.017772  -0.017866  -0.017804
     6  Bi   0.152616   0.194373  -0.019516
     7  Ge  31.506236   0.130513   0.113180
     8  Ge   0.130513  31.562193   0.144973
     9  Sn   0.113180   0.144973  21.340330
 Mulliken charges:
               1
     1  Ge  -0.205169
     2  Bi   0.119847
     3  Bi   0.039622
     4  Sn   0.095032
     5  Bi   0.010118
     6  Bi   0.050512
     7  Ge  -0.063759
     8  Ge  -0.153504
     9  Sn   0.107302
 Sum of Mulliken charges =   0.00000
 Mulliken charges with hydrogens summed into heavy atoms:
               1
     1  Ge  -0.205169
     2  Bi   0.119847
     3  Bi   0.039622
     4  Sn   0.095032
     5  Bi   0.010118
     6  Bi   0.050512
     7  Ge  -0.063759
     8  Ge  -0.153504
     9  Sn   0.107302
 Electronic spatial extent (au):  <R**2>=           6209.3317
 Charge=              0.0000 electrons
 Dipole moment (field-independent basis, Debye):
    X=             -0.0806    Y=             -2.2817    Z=             -0.8762  Tot=              2.4455
 Quadrupole moment (field-independent basis, Debye-Ang):
   XX=           -215.2970   YY=           -219.6901   ZZ=           -220.7371
   XY=             -0.8437   XZ=             -0.8558   YZ=             -0.1684
 Traceless Quadrupole moment (field-independent basis, Debye-Ang):
   XX=              3.2778   YY=             -1.1154   ZZ=             -2.1624
   XY=             -0.8437   XZ=             -0.8558   YZ=             -0.1684
 Octapole moment (field-independent basis, Debye-Ang**2):
  XXX=             12.3212  YYY=           -173.4386  ZZZ=            -18.2315  XYY=              4.6885
  XXY=            -55.8942  XXZ=             -2.5660  XZZ=             -2.4982  YZZ=            -60.6630
  YYZ=              1.4046  XYZ=             -3.9782
 Hexadecapole moment (field-independent basis, Debye-Ang**3):
 XXXX=          -3379.6661 YYYY=          -3235.9339 ZZZZ=          -3098.0297 XXXY=             37.6199
 XXXZ=             81.5926 YYYX=             15.3039 YYYZ=             13.4537 ZZZX=             49.6081
 ZZZY=            -10.9842 XXYY=          -1106.1119 XXZZ=          -1055.4342 YYZZ=          -1057.9700
 XXYZ=              3.1862 YYXZ=             -5.2966 ZZXY=             31.4804
 N-N= 3.555843462272D+03 E-N=-2.470329142307D+04  KE= 6.661971152508D+03
 No NMR shielding tensors so no spin-rotation constants.
 Leave Link  601 at Tue Mar  6 12:15:29 2018, MaxMem=   536870912 cpu:         2.2
 (Enter /share/apps//mg09/l701.exe)
 Compute integral first derivatives.
 ... and contract with generalized density number  0.
   1 Symmetry operations used in ECPInt.
 ECPInt:  NShTT=   10440 NPrTT=   41973 LenC2=    9673 LenP2D=   27439.
 LDataN:  DoStor=T MaxTD1= 9 Len=  602
 Leave Link  701 at Tue Mar  6 12:16:00 2018, MaxMem=   536870912 cpu:       101.1
 (Enter /share/apps//mg09/l702.exe)
 L702 exits ... SP integral derivatives will be done elsewhere.
 Leave Link  702 at Tue Mar  6 12:16:00 2018, MaxMem=   536870912 cpu:         0.1
 (Enter /share/apps//mg09/l703.exe)
 Compute integral first derivatives, UseDBF=F ICtDFT=           0.
 Integral derivatives from FoFJK, PRISM(SPDF).
 Calling FoFJK, ICntrl=      2127 FMM=F ISym2X=0 I1Cent= 0 IOpClX= 0 NMat=1 NMatS=1 NMatT=0.
 FoFJK:  IHMeth= 1 ICntrl=    2127 DoSepK=F KAlg= 0 I1Cent=   0 FoldK=F
 IRaf=         0 NMat=   1 IRICut=       1 DoRegI=T DoRafI=F ISym2E= 0.
 FoFCou: FMM=F IPFlag=           0 FMFlag=      100000 FMFlg1=         800
         NFxFlg=           0 DoJE=F BraDBF=F KetDBF=F FulRan=T
         wScrn=  0.000000 ICntrl=    2127 IOpCl=  0 I1Cent=           0 NGrid=           0
         NMat0=    1 NMatS0=      1 NMatT0=    0 NMatD0=    1 NMtDS0=    0 NMtDT0=    0
 Symmetry not used in FoFCou.
 Defaulting to unpruned grid for atomic number  83.
 Defaulting to unpruned grid for atomic number  83.
 Defaulting to unpruned grid for atomic number  83.
 Defaulting to unpruned grid for atomic number  83.
 Leave Link  703 at Tue Mar  6 12:20:02 2018, MaxMem=   536870912 cpu:       842.3
 (Enter /share/apps//mg09/l716.exe)
 Dipole        =-3.17253643D-02-8.97680000D-01-3.44733772D-01
 ***** Axes restored to original set *****
 -------------------------------------------------------------------
 Center     Atomic                   Forces (Hartrees/Bohr)
 Number     Number              X              Y              Z
 -------------------------------------------------------------------
      1       32          -0.006808111   -0.009653908   -0.010928794
      2       83          -0.005839011    0.006017629   -0.004412641
      3       83          -0.004552062    0.006151434    0.002450673
      4       50           0.008587691    0.002217605   -0.010038099
      5       83           0.002119490    0.006086154   -0.001344464
      6       83           0.009083877    0.003595756    0.001506602
      7       32           0.009317020   -0.013609348    0.003277692
      8       32           0.002371854    0.002666456    0.014421382
      9       50          -0.014280747   -0.003471779    0.005067649
 -------------------------------------------------------------------
 Cartesian Forces:  Max     0.014421382 RMS     0.007401123
 Force constants in Cartesian coordinates: 
                1             2             3             4             5 
      1  0.137575D+00
      2  0.137111D-01  0.176922D+00
      3  0.117171D-01  0.296820D-01  0.155375D+00
      4 -0.304100D-01  0.902180D-03 -0.112363D-01  0.161870D+00
      5  0.289622D-01 -0.778246D-01  0.141295D-01 -0.225074D-01  0.169750D+00
      6 -0.207915D-02 -0.177705D-01 -0.292980D-01  0.402929D-01 -0.102039D-01
      7  0.338824D-02  0.384411D-02  0.256204D-02 -0.201151D-01 -0.484800D-03
      8 -0.149738D-02 -0.198980D-03 -0.754335D-02  0.103065D-01 -0.273734D-01
      9 -0.178694D-02 -0.677506D-02  0.310237D-02  0.553782D-02 -0.218099D-01
     10 -0.493180D-01 -0.870286D-02  0.244997D-01 -0.386839D-01  0.623419D-02
     11 -0.294931D-01 -0.365412D-01  0.104071D-01  0.140834D-01 -0.146645D-01
     12 -0.681239D-02 -0.155240D-01 -0.330500D-01 -0.134194D-01  0.680914D-02
     13  0.697604D-02 -0.428346D-02 -0.231299D-02 -0.452580D-01 -0.263973D-01
     14 -0.534551D-02 -0.386201D-02 -0.452830D-02  0.250749D-02 -0.346324D-01
     15 -0.872152D-04  0.178871D-02  0.323728D-02 -0.213704D-01 -0.127927D-01
     16 -0.140142D-02 -0.584598D-02 -0.610277D-02 -0.361859D-02  0.298956D-02
     17 -0.109713D-03  0.387578D-02 -0.456209D-02 -0.132158D-02  0.521356D-02
     18 -0.232920D-02 -0.605474D-02  0.490465D-02 -0.478954D-03  0.170885D-02
     19 -0.424291D-01  0.181576D-01 -0.160530D-01  0.696648D-03  0.371861D-02
     20 -0.897182D-02 -0.376022D-01 -0.156788D-01  0.957469D-02 -0.147882D-02
     21 -0.251330D-01  0.182629D-01 -0.485150D-01 -0.454444D-02  0.193337D-02
     22  0.859148D-02 -0.360605D-02 -0.189787D-02  0.196119D-02  0.378038D-03
     23 -0.236588D-02  0.358902D-02  0.701853D-03  0.194707D-02  0.541720D-02
     24 -0.399113D-02 -0.680983D-02 -0.418721D-02 -0.857898D-02  0.340617D-02
     25 -0.329720D-01 -0.141766D-01 -0.117596D-02 -0.264421D-01  0.710690D-02
     26  0.511017D-02 -0.283580D-01 -0.226080D-01 -0.154924D-01 -0.244067D-01
     27  0.305019D-01  0.320046D-02 -0.515691D-01  0.137978D-01  0.168195D-01
                6             7             8             9            10 
      6  0.163120D+00
      7 -0.206356D-01  0.115383D+00
      8  0.325344D-02 -0.261382D-01  0.152738D+00
      9 -0.538699D-01 -0.170143D-01  0.125191D-01  0.133424D+00
     10  0.188748D-01  0.176551D-02  0.446625D-02  0.176158D-02  0.155108D+00
     11 -0.641718D-02  0.169020D-02  0.298076D-02  0.771218D-03  0.693792D-02
     12 -0.268660D-01  0.669023D-02 -0.620939D-02 -0.894725D-03 -0.376721D-01
     13 -0.742097D-02 -0.366943D-01 -0.157826D-01  0.157986D-01 -0.215960D-01
     14  0.746036D-02  0.877196D-02 -0.295635D-01 -0.789738D-02 -0.872700D-02
     15 -0.222265D-01  0.248034D-01  0.169791D-01 -0.321146D-01  0.816562D-02
     16 -0.856293D-02 -0.679983D-02  0.298381D-02  0.467705D-03 -0.304197D-01
     17  0.310191D-03  0.387628D-02  0.237783D-02 -0.415887D-02 -0.933277D-02
     18  0.132617D-02  0.342049D-03 -0.397868D-02  0.442789D-02 -0.267313D-01
     19 -0.617966D-02  0.237575D-02  0.202828D-02  0.367426D-02 -0.198027D-01
     20  0.870593D-02  0.782155D-02 -0.348029D-02 -0.553479D-02  0.134016D-01
     21  0.281522D-02  0.314198D-03  0.236452D-02  0.527739D-02 -0.151039D-02
     22  0.530580D-03 -0.359025D-01  0.176333D-01 -0.191454D-01  0.451548D-02
     23  0.152295D-02  0.278920D-01 -0.441388D-01  0.282083D-01  0.616885D-03
     24 -0.385474D-02 -0.110867D-03 -0.300548D-02 -0.378776D-01  0.671908D-02
     25 -0.148200D-01 -0.234007D-01  0.600004D-02  0.107067D-01 -0.156901D-02
     26  0.131388D-01 -0.272731D-01 -0.533412D-01  0.467739D-02 -0.489417D-02
     27 -0.311459D-01  0.304882D-02 -0.143793D-01 -0.214751D-01  0.589296D-02
               11            12            13            14            15 
     11  0.127531D+00
     12  0.161775D-01  0.184028D+00
     13  0.135910D-01  0.126518D-01  0.119915D+00
     14 -0.424413D-01  0.255261D-02  0.153611D-01  0.158511D+00
     15 -0.286472D-01 -0.270963D-01 -0.747822D-02 -0.114699D-01  0.971535D-01
     16 -0.255933D-02  0.125197D-01 -0.356446D-01 -0.545976D-02 -0.680879D-02
     17 -0.173967D-01 -0.561707D-02  0.251091D-01 -0.390238D-01  0.225989D-01
     18 -0.109313D-01 -0.569038D-01 -0.131812D-01  0.507244D-02 -0.237012D-01
     19 -0.505261D-02  0.165258D-01  0.484173D-02  0.460824D-02 -0.314425D-03
     20 -0.319838D-01 -0.432538D-02 -0.420227D-02 -0.582707D-02  0.436059D-02
     21  0.223955D-01 -0.342106D-01  0.197547D-02  0.979376D-03  0.438322D-02
     22  0.188377D-02 -0.108588D-02  0.680719D-02 -0.321767D-02 -0.219829D-03
     23  0.619251D-02  0.246291D-02 -0.321413D-02 -0.204729D-02  0.449162D-02
     24 -0.275642D-02 -0.523826D-02 -0.242068D-03  0.435005D-02 -0.421704D-02
     25 -0.108123D-02  0.106023D-01  0.652509D-03 -0.849885D-02  0.330987D-02
     26  0.632299D-02  0.367365D-02 -0.181403D-03 -0.111360D-02  0.269092D-02
     27 -0.999183D-03  0.231279D-03  0.209693D-03  0.348077D-02  0.458170D-02
               16            17            18            19            20 
     16  0.177617D+00
     17  0.277637D-01  0.127199D+00
     18  0.138176D-01 -0.547144D-02  0.134735D+00
     19 -0.408534D-01 -0.403137D-01 -0.624389D-02  0.172592D+00
     20 -0.234000D-02 -0.681210D-01  0.500640D-02 -0.170097D-01  0.228269D+00
     21 -0.979371D-02 -0.599891D-02 -0.236307D-01  0.169972D-01 -0.504804D-02
     22 -0.540899D-01 -0.555598D-02  0.378409D-01 -0.268188D-01  0.130947D-01
     23 -0.101395D-01 -0.186339D-01  0.141038D-01  0.896614D-02 -0.456169D-01
     24  0.113601D-02  0.550522D-03 -0.473951D-01 -0.789978D-02  0.429744D-02
     25 -0.478970D-02 -0.115274D-03 -0.303599D-02 -0.506024D-01 -0.113687D-01
     26 -0.739250D-02  0.450929D-02  0.544641D-03  0.248972D-01 -0.341590D-01
     27  0.332714D-02  0.234877D-02  0.623698D-02 -0.506446D-03  0.821668D-02
               21            22            23            24            25 
     21  0.159443D+00
     22  0.889238D-02  0.143990D+00
     23 -0.329886D-01 -0.801866D-02  0.118049D+00
     24 -0.455502D-01  0.434271D-02 -0.339194D-02  0.187425D+00
     25  0.128024D-01 -0.490542D-01 -0.156839D-01  0.862501D-02  0.188178D+00
     26 -0.190005D-02 -0.125914D-01 -0.228112D-01  0.335947D-02  0.378176D-01
     27 -0.200120D-01 -0.292576D-01 -0.151109D-01 -0.391044D-01 -0.270143D-01
               26            27 
     26  0.153357D+00
     27 -0.357682D-02  0.152257D+00
 Leave Link  716 at Tue Mar  6 12:20:02 2018, MaxMem=   536870912 cpu:         0.1
 (Enter /share/apps//mg09/l103.exe)

 GradGradGradGradGradGradGradGradGradGradGradGradGradGradGradGradGradGrad
 Berny optimization.
 Search for a local minimum.
 Step number   1 out of a maximum of  100
 All quantities printed in internal units (Hartrees-Bohrs-Radians)
 Second derivative matrix not updated -- first step.
 ITU=  0
     Eigenvalues ---    0.08078   0.11991   0.12172   0.12445   0.13704
     Eigenvalues ---    0.14198   0.14607   0.14992   0.15401   0.16707
     Eigenvalues ---    0.17321   0.22396   0.22771   0.23215   0.24302
     Eigenvalues ---    0.24562   0.26325   0.27992   0.28637   0.30227
     Eigenvalues ---    0.31721
 RFO step:  Lambda=-8.77297801D-03 EMin= 8.07802717D-02
 Linear search not attempted -- first point.
 TrRot=  0.000401 -0.001958  0.000744  0.725466 -0.000087 -0.725500
 Variable       Old X    -DE/DX   Delta X   Delta X   Delta X     New X
                                 (Linear)    (Quad)   (Total)
    X1        1.66025  -0.00681   0.00000  -0.04053  -0.04017   1.62008
    Y1        4.47985  -0.00965   0.00000  -0.05073  -0.05291   4.42694
    Z1        2.97757  -0.01093   0.00000  -0.06975  -0.06865   2.90892
    X2        3.10751  -0.00584   0.00000  -0.03988  -0.03969   3.06782
    Y2       -0.75080   0.00602   0.00000   0.02990   0.02768  -0.72313
    Z2        2.91752  -0.00441   0.00000  -0.03764  -0.03674   2.88078
    X3        2.63396  -0.00455   0.00000  -0.03998  -0.03949   2.59447
    Y3       -2.56102   0.00615   0.00000   0.04185   0.03996  -2.52106
    Z3       -2.61457   0.00245   0.00000   0.02459   0.02535  -2.58922
    X4       -2.73309   0.00859   0.00000   0.05039   0.05059  -2.68249
    Y4        1.41845   0.00222   0.00000   0.00902   0.00694   1.42539
    Z4        3.86321  -0.01004   0.00000  -0.06510  -0.06445   3.79876
    X5       -1.53108   0.00212   0.00000   0.01708   0.01728  -1.51381
    Y5       -3.80410   0.00609   0.00000   0.04892   0.04694  -3.75715
    Z5        1.15609  -0.00134   0.00000  -0.01181  -0.01138   1.14471
    X6       -4.64237   0.00908   0.00000   0.06476   0.06527  -4.57710
    Y6        0.25261   0.00360   0.00000   0.01102   0.00930   0.26191
    Z6       -1.47313   0.00151   0.00000   0.01468   0.01514  -1.45798
    X7       -1.63189   0.00932   0.00000   0.04544   0.04606  -1.58583
    Y7        4.79677  -0.01361   0.00000  -0.06686  -0.06870   4.72807
    Z7       -1.03238   0.00328   0.00000   0.01791   0.01882  -1.01356
    X8       -0.50133   0.00237   0.00000   0.01409   0.01485  -0.48647
    Y8        1.35061   0.00267   0.00000   0.01800   0.01633   1.36694
    Z8       -4.90938   0.01442   0.00000   0.08781   0.08860  -4.82078
    X9        3.75289  -0.01428   0.00000  -0.07534  -0.07470   3.67818
    Y9        3.17322  -0.00347   0.00000  -0.02356  -0.02553   3.14768
    Z9       -1.94274   0.00507   0.00000   0.03215   0.03331  -1.90943
         Item               Value     Threshold  Converged?
 Maximum Force            0.014421     0.000450     NO 
 RMS     Force            0.007401     0.000300     NO 
 Maximum Displacement     0.088599     0.001800     NO 
 RMS     Displacement     0.044498     0.001200     NO 
 Predicted change in Energy=-4.621237D-03
 Lowest energy point so far.  Saving SCF results.
 GradGradGradGradGradGradGradGradGradGradGradGradGradGradGradGradGradGrad

 Leave Link  103 at Tue Mar  6 12:20:02 2018, MaxMem=   536870912 cpu:         0.1
 (Enter /share/apps//mg09/l202.exe)
                          Input orientation:                          
 ---------------------------------------------------------------------
 Center     Atomic      Atomic             Coordinates (Angstroms)
 Number     Number       Type             X           Y           Z
 ---------------------------------------------------------------------
      1         32           0        0.857312    2.342635    1.539334
      2         83           0        1.623418   -0.382662    1.524443
      3         83           0        1.372932   -1.334090   -1.370157
      4         50           0       -1.419514    0.754285    2.010216
      5         83           0       -0.801073   -1.988201    0.605755
      6         83           0       -2.422096    0.138599   -0.771532
      7         32           0       -0.839185    2.501987   -0.536352
      8         32           0       -0.257431    0.723353   -2.551049
      9         50           0        1.946410    1.665682   -1.010429
 ---------------------------------------------------------------------
                    Distance matrix (angstroms):
                    1          2          3          4          5
     1  Ge   0.000000
     2  Bi   2.830969   0.000000
     3  Bi   4.716917   3.057232   0.000000
     4  Sn   2.815763   3.284518   4.856540   0.000000
     5  Bi   4.730533   3.049573   3.009715   3.142643   0.000000
     6  Bi   4.577379   4.680748   4.114535   3.020325   3.007975
     7  Ge   2.685510   4.316537   4.506016   3.142650   4.633319
     8  Ge   4.538277   4.622824   2.878482   4.707073   4.196842
     9  Sn   2.854065   3.274999   3.075210   4.613500   4.848874
                    6          7          8          9
     6  Bi   0.000000
     7  Ge   2.854212   0.000000
     8  Ge   2.862586   2.749724   0.000000
     9  Sn   4.633887   2.946810   2.849282   0.000000
 Stoichiometry    Bi4Ge3Sn2
 Framework group  C1[X(Bi4Ge3Sn2)]
 Deg. of freedom    21
 Full point group                 C1      NOp   1
 RotChk:  IX=2 Diff= 1.02D-02
 Largest Abelian subgroup         C1      NOp   1
 Largest concise Abelian subgroup C1      NOp   1
                         Standard orientation:                         
 ---------------------------------------------------------------------
 Center     Atomic      Atomic             Coordinates (Angstroms)
 Number     Number       Type             X           Y           Z
 ---------------------------------------------------------------------
      1         32           0       -0.866621    2.324987   -1.552803
      2         83           0       -1.626885   -0.401772   -1.518568
      3         83           0       -1.366709   -1.334253    1.381338
      4         50           0        1.412323    0.738486   -2.019650
      5         83           0        0.803441   -1.996318   -0.596162
      6         83           0        2.423578    0.142608    0.763273
      7         32           0        0.835024    2.501108    0.517305
      8         32           0        0.262394    0.734090    2.544798
      9         50           0       -1.947519    1.661955    1.004097
 ---------------------------------------------------------------------
 Rotational constants (GHZ):      0.1034694      0.0926617      0.0897136
 Leave Link  202 at Tue Mar  6 12:20:04 2018, MaxMem=   536870912 cpu:         0.1
 (Enter /share/apps//mg09/l301.exe)
 Standard basis: def2TZVP (5D, 7F)
 Ernie: Thresh=  0.10000D-02 Tol=  0.10000D-05 Strict=F.
 There are   519 symmetry adapted cartesian basis functions of A   symmetry.
 There are   444 symmetry adapted basis functions of A   symmetry.
   444 basis functions,   963 primitive gaussians,   519 cartesian basis functions
   116 alpha electrons      116 beta electrons
       nuclear repulsion energy      3614.2408946260 Hartrees.
 IExCor= 1009 DFT=T Ex+Corr=PBE1PBE ExCW=0 ScaHFX=  0.250000
 ScaDFX=  0.750000  0.750000  1.000000  1.000000 ScalE2=  1.000000  1.000000
 IRadAn=      0 IRanWt=     -1 IRanGd=            0 ICorTp=0 IEmpDi=  4
 NAtoms=    9 NActive=    9 NUniq=    9 SFac= 1.00D+00 NAtFMM=   60 NAOKFM=F Big=F
 Integral buffers will be    131072 words long.
 Raffenetti 2 integral format.
 Two-electron integral symmetry is turned on.
 Leave Link  301 at Tue Mar  6 12:20:04 2018, MaxMem=   536870912 cpu:         0.2
 (Enter /share/apps//mg09/l302.exe)
 NPDir=0 NMtPBC=     1 NCelOv=     1 NCel=       1 NClECP=     1 NCelD=      1
         NCelK=      1 NCelE2=     1 NClLst=     1 CellRange=     0.0.
 One-electron integrals computed using PRISM.
   1 Symmetry operations used in ECPInt.
 ECPInt:  NShTT=   10440 NPrTT=   41973 LenC2=    9704 LenP2D=   27638.
 LDataN:  DoStor=T MaxTD1= 8 Len=  415
 NBasis=   444 RedAO= T EigKep=  1.32D-03  NBF=   444
 NBsUse=   444 1.00D-06 EigRej= -1.00D+00 NBFU=   444
 Precomputing XC quadrature grid using
 IXCGrd= 4 IRadAn=           0 IRanWt=          -1 IRanGd=           0 AccXCQ= 0.00D+00.
 Defaulting to unpruned grid for atomic number  50.
 Defaulting to unpruned grid for atomic number  83.
 Defaulting to unpruned grid for atomic number  50.
 Generated NRdTot=       0 NPtTot=           0 NUsed=           0 NTot=          32
 NSgBfM=   505   505   505   505   505 MxSgAt=     9 MxSgA2=     9.
 Leave Link  302 at Tue Mar  6 12:20:13 2018, MaxMem=   536870912 cpu:        35.1
 (Enter /share/apps//mg09/l303.exe)
 DipDrv:  MaxL=1.
 Leave Link  303 at Tue Mar  6 12:20:14 2018, MaxMem=   536870912 cpu:         0.5
 (Enter /share/apps//mg09/l401.exe)
 Initial guess from the checkpoint file:  "Isomer_21.chk"
 B after Tr=     0.000000    0.000000    0.000000
         Rot=    0.999994    0.003075   -0.001408   -0.001022 Ang=   0.40 deg.
 Guess basis will be translated and rotated to current coordinates.
 JPrj=2 DoOrth=T DoCkMO=T.
 Generating alternative initial guess.
 ExpMin= 4.62D-02 ExpMax= 4.66D+05 ExpMxC= 4.50D+03 IAcc=2 IRadAn=         4 AccDes= 0.00D+00
 Harris functional with IExCor= 1009 and IRadAn=       4 diagonalized for initial guess.
 HarFok:  IExCor= 1009 AccDes= 0.00D+00 IRadAn=         4 IDoV= 1 UseB2=F ITyADJ=14
 ICtDFT=  3500011 ScaDFX=  1.000000  1.000000  1.000000  1.000000
 Defaulting to unpruned grid for atomic number  83.
 Defaulting to unpruned grid for atomic number  83.
 Defaulting to unpruned grid for atomic number  83.
 Defaulting to unpruned grid for atomic number  83.
 FoFCou: FMM=F IPFlag=           0 FMFlag=      100000 FMFlg1=           0
         NFxFlg=           0 DoJE=T BraDBF=F KetDBF=T FulRan=T
         wScrn=  0.000000 ICntrl=     500 IOpCl=  0 I1Cent=   200000004 NGrid=           0
         NMat0=    1 NMatS0=      1 NMatT0=    0 NMatD0=    1 NMtDS0=    0 NMtDT0=    0
 Petite list used in FoFCou.
 Harris En= -7518.63945167721    
 Leave Link  401 at Tue Mar  6 12:20:18 2018, MaxMem=   536870912 cpu:        14.1
 (Enter /share/apps//mg09/l502.exe)
 Closed shell SCF:
 Using DIIS extrapolation, IDIIS=  1040.
 Integral symmetry usage will be decided dynamically.
 IVT=     1410107 IEndB=     1410107 NGot=   536870912 MDV=   536322046
 LenX=   536322046 LenY=   536052166
 Requested convergence on RMS density matrix=1.00D-08 within 768 cycles.
 Requested convergence on MAX density matrix=1.00D-06.
 Requested convergence on             energy=1.00D-06.
 No special actions if energy rises.
 Fock matrices will be formed incrementally for  20 cycles.

 Cycle   1  Pass 1  IDiag  1:
 FoFJK:  IHMeth= 1 ICntrl=       0 DoSepK=F KAlg= 0 I1Cent=   0 FoldK=F
 IRaf= 880000000 NMat=   1 IRICut=       1 DoRegI=T DoRafI=F ISym2E= 0.
 FoFCou: FMM=F IPFlag=           0 FMFlag=      100000 FMFlg1=           0
         NFxFlg=           0 DoJE=F BraDBF=F KetDBF=F FulRan=T
         wScrn=  0.000000 ICntrl=       0 IOpCl=  0 I1Cent=           0 NGrid=           0
         NMat0=    1 NMatS0=      1 NMatT0=    0 NMatD0=    1 NMtDS0=    0 NMtDT0=    0
 Symmetry not used in FoFCou.
 Defaulting to unpruned grid for atomic number  83.
 Defaulting to unpruned grid for atomic number  83.
 Defaulting to unpruned grid for atomic number  83.
 Defaulting to unpruned grid for atomic number  83.
 E= -7517.82264245474    
 DIIS: error= 4.54D-03 at cycle   1 NSaved=   1.
 NSaved= 1 IEnMin= 1 EnMin= -7517.82264245474     IErMin= 1 ErrMin= 4.54D-03
 ErrMax= 4.54D-03  0.00D+00 EMaxC= 1.00D-01 BMatC= 8.46D-03 BMatP= 8.46D-03
 IDIUse=3 WtCom= 9.55D-01 WtEn= 4.54D-02
 Coeff-Com:  0.100D+01
 Coeff-En:   0.100D+01
 Coeff:      0.100D+01
 Gap=     7.368 Goal=   None    Shift=    0.000
 GapD=    7.368 DampG=2.000 DampE=1.000 DampFc=2.0000 IDamp=-1.
 RMSDP=1.86D-04 MaxDP=4.72D-03              OVMax= 1.99D-02

 Cycle   2  Pass 1  IDiag  1:
 RMSU=  1.85D-04    CP:  1.00D+00
 E= -7517.82263400503     Delta-E=        0.000008449713 Rises=F Damp=F
 DIIS: error= 1.44D-03 at cycle   2 NSaved=   2.
 NSaved= 2 IEnMin= 1 EnMin= -7517.82264245474     IErMin= 2 ErrMin= 1.44D-03
 ErrMax= 1.44D-03  0.00D+00 EMaxC= 1.00D-01 BMatC= 1.69D-03 BMatP= 8.46D-03
 IDIUse=3 WtCom= 9.86D-01 WtEn= 1.44D-02
 Coeff-Com:  0.206D+00 0.794D+00
 Coeff-En:   0.502D+00 0.498D+00
 Coeff:      0.210D+00 0.790D+00
 Gap=     0.125 Goal=   None    Shift=    0.000
 RMSDP=2.27D-04 MaxDP=9.83D-03 DE= 8.45D-06 OVMax= 1.96D-02

 Cycle   3  Pass 1  IDiag  1:
 RMSU=  2.09D-04    CP:  9.99D-01  5.37D-01
 E= -7517.82012935986     Delta-E=        0.002504645161 Rises=F Damp=F
 DIIS: error= 2.09D-03 at cycle   3 NSaved=   3.
 NSaved= 3 IEnMin= 1 EnMin= -7517.82264245474     IErMin= 2 ErrMin= 1.44D-03
 ErrMax= 2.09D-03  0.00D+00 EMaxC= 1.00D-01 BMatC= 4.23D-03 BMatP= 1.69D-03
 IDIUse=3 WtCom= 1.80D-01 WtEn= 8.20D-01
 Coeff-Com:  0.111D-01 0.610D+00 0.379D+00
 Coeff-En:   0.000D+00 0.680D+00 0.320D+00
 Coeff:      0.200D-02 0.667D+00 0.331D+00
 Gap=     0.127 Goal=   None    Shift=    0.000
 RMSDP=1.34D-04 MaxDP=5.63D-03 DE= 2.50D-03 OVMax= 1.49D-02

 Cycle   4  Pass 1  IDiag  1:
 RMSU=  5.66D-05    CP:  9.99D-01  7.86D-01  4.64D-01
 E= -7517.82376906412     Delta-E=       -0.003639704257 Rises=F Damp=F
 DIIS: error= 5.76D-04 at cycle   4 NSaved=   4.
 NSaved= 4 IEnMin= 4 EnMin= -7517.82376906412     IErMin= 4 ErrMin= 5.76D-04
 ErrMax= 5.76D-04  0.00D+00 EMaxC= 1.00D-01 BMatC= 3.34D-04 BMatP= 1.69D-03
 IDIUse=3 WtCom= 9.94D-01 WtEn= 5.76D-03
 Coeff-Com:  0.312D-03 0.448D+00 0.234D+00 0.318D+00
 Coeff-En:   0.000D+00 0.134D+00 0.000D+00 0.866D+00
 Coeff:      0.310D-03 0.446D+00 0.232D+00 0.321D+00
 Gap=     0.127 Goal=   None    Shift=    0.000
 RMSDP=4.71D-05 MaxDP=2.28D-03 DE=-3.64D-03 OVMax= 4.65D-03

 Cycle   5  Pass 1  IDiag  1:
 RMSU=  1.47D-05    CP:  9.99D-01  8.56D-01  4.34D-01  2.58D-01
 E= -7517.82405083218     Delta-E=       -0.000281768062 Rises=F Damp=F
 DIIS: error= 9.02D-05 at cycle   5 NSaved=   5.
 NSaved= 5 IEnMin= 5 EnMin= -7517.82405083218     IErMin= 5 ErrMin= 9.02D-05
 ErrMax= 9.02D-05  0.00D+00 EMaxC= 1.00D-01 BMatC= 1.60D-05 BMatP= 3.34D-04
 IDIUse=1 WtCom= 1.00D+00 WtEn= 0.00D+00
 Coeff-Com: -0.104D-02 0.223D+00 0.106D+00 0.221D+00 0.451D+00
 Coeff:     -0.104D-02 0.223D+00 0.106D+00 0.221D+00 0.451D+00
 Gap=     0.127 Goal=   None    Shift=    0.000
 RMSDP=1.03D-05 MaxDP=5.19D-04 DE=-2.82D-04 OVMax= 1.10D-03

 Cycle   6  Pass 1  IDiag  1:
 RMSU=  4.33D-06    CP:  9.99D-01  8.64D-01  4.23D-01  3.78D-01  6.30D-01
 E= -7517.82406620001     Delta-E=       -0.000015367830 Rises=F Damp=F
 DIIS: error= 2.16D-05 at cycle   6 NSaved=   6.
 NSaved= 6 IEnMin= 6 EnMin= -7517.82406620001     IErMin= 6 ErrMin= 2.16D-05
 ErrMax= 2.16D-05  0.00D+00 EMaxC= 1.00D-01 BMatC= 6.60D-07 BMatP= 1.60D-05
 IDIUse=1 WtCom= 1.00D+00 WtEn= 0.00D+00
 Coeff-Com: -0.581D-03 0.992D-01 0.476D-01 0.106D+00 0.253D+00 0.495D+00
 Coeff:     -0.581D-03 0.992D-01 0.476D-01 0.106D+00 0.253D+00 0.495D+00
 Gap=     0.127 Goal=   None    Shift=    0.000
 RMSDP=3.76D-06 MaxDP=1.38D-04 DE=-1.54D-05 OVMax= 4.57D-04

 Cycle   7  Pass 1  IDiag  1:
 RMSU=  3.11D-06    CP:  9.99D-01  8.66D-01  4.25D-01  3.77D-01  6.84D-01
                    CP:  5.82D-01
 E= -7517.82406622853     Delta-E=       -0.000000028514 Rises=F Damp=F
 DIIS: error= 2.54D-05 at cycle   7 NSaved=   7.
 NSaved= 7 IEnMin= 7 EnMin= -7517.82406622853     IErMin= 6 ErrMin= 2.16D-05
 ErrMax= 2.54D-05  0.00D+00 EMaxC= 1.00D-01 BMatC= 5.94D-07 BMatP= 6.60D-07
 IDIUse=1 WtCom= 1.00D+00 WtEn= 0.00D+00
 Coeff-Com: -0.165D-03 0.104D-01 0.608D-02 0.182D-01 0.722D-01 0.476D+00
 Coeff-Com:  0.418D+00
 Coeff:     -0.165D-03 0.104D-01 0.608D-02 0.182D-01 0.722D-01 0.476D+00
 Coeff:      0.418D+00
 Gap=     0.127 Goal=   None    Shift=    0.000
 RMSDP=2.45D-06 MaxDP=1.14D-04 DE=-2.85D-08 OVMax= 2.69D-04

 Cycle   8  Pass 1  IDiag  1:
 RMSU=  9.71D-07    CP:  9.99D-01  8.68D-01  4.28D-01  3.78D-01  7.00D-01
                    CP:  9.12D-01  4.85D-01
 E= -7517.82406696380     Delta-E=       -0.000000735276 Rises=F Damp=F
 DIIS: error= 5.08D-06 at cycle   8 NSaved=   8.
 NSaved= 8 IEnMin= 8 EnMin= -7517.82406696380     IErMin= 8 ErrMin= 5.08D-06
 ErrMax= 5.08D-06  0.00D+00 EMaxC= 1.00D-01 BMatC= 5.06D-08 BMatP= 5.94D-07
 IDIUse=1 WtCom= 1.00D+00 WtEn= 0.00D+00
 Coeff-Com:  0.316D-05-0.136D-01-0.551D-02-0.836D-02-0.176D-02 0.231D+00
 Coeff-Com:  0.290D+00 0.509D+00
 Coeff:      0.316D-05-0.136D-01-0.551D-02-0.836D-02-0.176D-02 0.231D+00
 Coeff:      0.290D+00 0.509D+00
 Gap=     0.127 Goal=   None    Shift=    0.000
 RMSDP=7.02D-07 MaxDP=4.22D-05 DE=-7.35D-07 OVMax= 6.33D-05

 Cycle   9  Pass 1  IDiag  1:
 RMSU=  2.99D-07    CP:  9.99D-01  8.69D-01  4.29D-01  3.80D-01  7.09D-01
                    CP:  9.32D-01  5.96D-01  5.39D-01
 E= -7517.82406701465     Delta-E=       -0.000000050846 Rises=F Damp=F
 DIIS: error= 1.18D-06 at cycle   9 NSaved=   9.
 NSaved= 9 IEnMin= 9 EnMin= -7517.82406701465     IErMin= 9 ErrMin= 1.18D-06
 ErrMax= 1.18D-06  0.00D+00 EMaxC= 1.00D-01 BMatC= 3.68D-09 BMatP= 5.06D-08
 IDIUse=1 WtCom= 1.00D+00 WtEn= 0.00D+00
 Coeff-Com:  0.205D-04-0.933D-02-0.391D-02-0.679D-02-0.965D-02 0.859D-01
 Coeff-Com:  0.130D+00 0.299D+00 0.515D+00
 Coeff:      0.205D-04-0.933D-02-0.391D-02-0.679D-02-0.965D-02 0.859D-01
 Coeff:      0.130D+00 0.299D+00 0.515D+00
 Gap=     0.127 Goal=   None    Shift=    0.000
 RMSDP=1.89D-07 MaxDP=1.21D-05 DE=-5.08D-08 OVMax= 2.27D-05

 Cycle  10  Pass 1  IDiag  1:
 RMSU=  1.09D-07    CP:  9.99D-01  8.69D-01  4.29D-01  3.81D-01  7.14D-01
                    CP:  9.33D-01  5.99D-01  6.30D-01  7.53D-01
 E= -7517.82406701831     Delta-E=       -0.000000003662 Rises=F Damp=F
 DIIS: error= 3.97D-07 at cycle  10 NSaved=  10.
 NSaved=10 IEnMin=10 EnMin= -7517.82406701831     IErMin=10 ErrMin= 3.97D-07
 ErrMax= 3.97D-07  0.00D+00 EMaxC= 1.00D-01 BMatC= 2.11D-10 BMatP= 3.68D-09
 IDIUse=1 WtCom= 1.00D+00 WtEn= 0.00D+00
 Coeff-Com:  0.881D-05-0.333D-02-0.139D-02-0.246D-02-0.460D-02 0.236D-01
 Coeff-Com:  0.395D-01 0.103D+00 0.244D+00 0.602D+00
 Coeff:      0.881D-05-0.333D-02-0.139D-02-0.246D-02-0.460D-02 0.236D-01
 Coeff:      0.395D-01 0.103D+00 0.244D+00 0.602D+00
 Gap=     0.127 Goal=   None    Shift=    0.000
 RMSDP=9.01D-08 MaxDP=3.28D-06 DE=-3.66D-09 OVMax= 1.05D-05

 Cycle  11  Pass 1  IDiag  1:
 RMSU=  7.59D-08    CP:  9.99D-01  8.69D-01  4.29D-01  3.81D-01  7.15D-01
                    CP:  9.37D-01  6.02D-01  6.33D-01  8.45D-01  7.43D-01
 E= -7517.82406701821     Delta-E=        0.000000000102 Rises=F Damp=F
 DIIS: error= 6.91D-07 at cycle  11 NSaved=  11.
 NSaved=11 IEnMin=10 EnMin= -7517.82406701831     IErMin=10 ErrMin= 3.97D-07
 ErrMax= 6.91D-07  0.00D+00 EMaxC= 1.00D-01 BMatC= 3.37D-10 BMatP= 2.11D-10
 IDIUse=1 WtCom= 1.00D+00 WtEn= 0.00D+00
 Coeff-Com:  0.113D-05 0.109D-03 0.599D-04 0.538D-04-0.105D-02-0.772D-02
 Coeff-Com: -0.838D-02-0.695D-02 0.555D-01 0.587D+00 0.382D+00
 Coeff:      0.113D-05 0.109D-03 0.599D-04 0.538D-04-0.105D-02-0.772D-02
 Coeff:     -0.838D-02-0.695D-02 0.555D-01 0.587D+00 0.382D+00
 Gap=     0.127 Goal=   None    Shift=    0.000
 RMSDP=5.52D-08 MaxDP=2.16D-06 DE= 1.02D-10 OVMax= 6.40D-06

 Cycle  12  Pass 1  IDiag  1:
 RMSU=  1.63D-08    CP:  9.99D-01  8.69D-01  4.29D-01  3.81D-01  7.15D-01
                    CP:  9.40D-01  6.04D-01  6.35D-01  8.60D-01  1.01D+00
                    CP:  4.53D-01
 E= -7517.82406701908     Delta-E=       -0.000000000868 Rises=F Damp=F
 DIIS: error= 5.11D-08 at cycle  12 NSaved=  12.
 NSaved=12 IEnMin=12 EnMin= -7517.82406701908     IErMin=12 ErrMin= 5.11D-08
 ErrMax= 5.11D-08  0.00D+00 EMaxC= 1.00D-01 BMatC= 6.51D-12 BMatP= 2.11D-10
 IDIUse=1 WtCom= 1.00D+00 WtEn= 0.00D+00
 Coeff-Com: -0.450D-06 0.447D-03 0.200D-03 0.301D-03 0.258D-04-0.667D-02
 Coeff-Com: -0.898D-02-0.151D-01-0.122D-02 0.234D+00 0.189D+00 0.607D+00
 Coeff:     -0.450D-06 0.447D-03 0.200D-03 0.301D-03 0.258D-04-0.667D-02
 Coeff:     -0.898D-02-0.151D-01-0.122D-02 0.234D+00 0.189D+00 0.607D+00
 Gap=     0.127 Goal=   None    Shift=    0.000
 RMSDP=9.67D-09 MaxDP=6.47D-07 DE=-8.68D-10 OVMax= 1.33D-06

 SCF Done:  E(RPBE1PBE) =  -7517.82406702     A.U. after   12 cycles
            NFock= 12  Conv=0.97D-08     -V/T= 2.1284
 KE= 6.662197232787D+03 PE=-2.482017094167D+04 EE= 7.025908747234D+03
 Leave Link  502 at Tue Mar  6 12:31:09 2018, MaxMem=   536870912 cpu:      2555.3
 (Enter /share/apps//mg09/l701.exe)
 Compute integral first derivatives.
 ... and contract with generalized density number  0.
   1 Symmetry operations used in ECPInt.
 ECPInt:  NShTT=   10440 NPrTT=   41973 LenC2=    9704 LenP2D=   27638.
 LDataN:  DoStor=T MaxTD1= 9 Len=  602
 Leave Link  701 at Tue Mar  6 12:31:34 2018, MaxMem=   536870912 cpu:        88.0
 (Enter /share/apps//mg09/l702.exe)
 L702 exits ... SP integral derivatives will be done elsewhere.
 Leave Link  702 at Tue Mar  6 12:31:34 2018, MaxMem=   536870912 cpu:         0.1
 (Enter /share/apps//mg09/l703.exe)
 Compute integral first derivatives, UseDBF=F ICtDFT=           0.
 Integral derivatives from FoFJK, PRISM(SPDF).
 Calling FoFJK, ICntrl=      2127 FMM=F ISym2X=0 I1Cent= 0 IOpClX= 0 NMat=1 NMatS=1 NMatT=0.
 FoFJK:  IHMeth= 1 ICntrl=    2127 DoSepK=F KAlg= 0 I1Cent=   0 FoldK=F
 IRaf=         0 NMat=   1 IRICut=       1 DoRegI=T DoRafI=F ISym2E= 0.
 FoFCou: FMM=F IPFlag=           0 FMFlag=      100000 FMFlg1=         800
         NFxFlg=           0 DoJE=F BraDBF=F KetDBF=F FulRan=T
         wScrn=  0.000000 ICntrl=    2127 IOpCl=  0 I1Cent=           0 NGrid=           0
         NMat0=    1 NMatS0=      1 NMatT0=    0 NMatD0=    1 NMtDS0=    0 NMtDT0=    0
 Symmetry not used in FoFCou.
 Defaulting to unpruned grid for atomic number  83.
 Defaulting to unpruned grid for atomic number  83.
 Defaulting to unpruned grid for atomic number  83.
 Defaulting to unpruned grid for atomic number  83.
 Leave Link  703 at Tue Mar  6 12:35:44 2018, MaxMem=   536870912 cpu:       917.1
 (Enter /share/apps//mg09/l716.exe)
 Dipole        =-2.41787787D-02-9.50618793D-01-3.35289215D-01
 ***** Axes restored to original set *****
 -------------------------------------------------------------------
 Center     Atomic                   Forces (Hartrees/Bohr)
 Number     Number              X              Y              Z
 -------------------------------------------------------------------
      1       32          -0.003842135   -0.003643161   -0.005596205
      2       83          -0.001077095    0.003160842    0.000110759
      3       83          -0.000688976    0.002021687   -0.001331977
      4       50           0.004343394    0.002003291   -0.004356477
      5       83          -0.000284167    0.000097893    0.000857726
      6       83           0.001848522    0.002701631   -0.000843438
      7       32           0.005502449   -0.007965293    0.001961197
      8       32           0.001230419    0.002587410    0.007129162
      9       50          -0.007032411   -0.000964300    0.002069253
 -------------------------------------------------------------------
 Cartesian Forces:  Max     0.007965293 RMS     0.003560229
 Leave Link  716 at Tue Mar  6 12:35:45 2018, MaxMem=   536870912 cpu:         0.1
 (Enter /share/apps//mg09/l103.exe)

 GradGradGradGradGradGradGradGradGradGradGradGradGradGradGradGradGradGrad
 Berny optimization.
 Search for a local minimum.
 Step number   2 out of a maximum of  100
 All quantities printed in internal units (Hartrees-Bohrs-Radians)
 Update second derivatives using D2CorN and points    1    2
 DE= -6.32D-03 DEPred=-4.62D-03 R= 1.37D+00
 TightC=F SS=  1.41D+00  RLast= 2.31D-01 DXNew= 5.0454D-01 6.9365D-01
 Trust test= 1.37D+00 RLast= 2.31D-01 DXMaxT set to 5.05D-01
 ITU=  1  0
     Eigenvalues ---    0.07917   0.09461   0.12034   0.12187   0.12649
     Eigenvalues ---    0.13718   0.14375   0.14689   0.15248   0.16708
     Eigenvalues ---    0.17320   0.22006   0.22743   0.23128   0.24076
     Eigenvalues ---    0.24570   0.26311   0.27998   0.28637   0.30225
     Eigenvalues ---    0.31717
 RFO step:  Lambda=-6.03590674D-04 EMin= 7.91668235D-02
 Quartic linear search produced a step of  0.64484.
 TrRot=  0.000114  0.000053  0.000014  0.000004 -0.000029  0.000004
 MatCor failed.
 Variable       Old X    -DE/DX   Delta X   Delta X   Delta X     New X
                                 (Linear)    (Quad)   (Total)
    X1        1.62008  -0.00384  -0.02590  -0.00756  -0.03346   1.58662
    Y1        4.42694  -0.00364  -0.03412   0.00281  -0.03124   4.39570
    Z1        2.90892  -0.00560  -0.04427  -0.01025  -0.05446   2.85446
    X2        3.06782  -0.00108  -0.02559   0.01079  -0.01477   3.05305
    Y2       -0.72313   0.00316   0.01785   0.00481   0.02273  -0.70040
    Z2        2.88078   0.00011  -0.02369   0.01284  -0.01075   2.87003
    X3        2.59447  -0.00069  -0.02547   0.00922  -0.01603   2.57843
    Y3       -2.52106   0.00202   0.02577  -0.00560   0.02024  -2.50082
    Z3       -2.58922  -0.00133   0.01635  -0.01839  -0.00195  -2.59117
    X4       -2.68249   0.00434   0.03262   0.00354   0.03615  -2.64634
[...]
     X            X   X  X       X            X           X                                                                          
     X            X   X  X       X            X                                                                                      
     X            X   X  X       X            X                                                                                      
     X            X   X  X       X            X                                                                                      
     X            X   X  X       X            X                                                                                      
     X            X   X  X       X            X                                                                                      
     X            X      X       X            X                                                                                      
     X            X      X       X            X                                                                                      
     X                   X       X            X                                                                                      
     X                   X                    X                                                                                      
     X                   X                                                                                                           
     X                   X                                                                                                           
     X                   X                                                                                                           
     X                   X                                                                                                           
                         X                                                                                                           
 
 ***** Axes restored to original set *****
 -------------------------------------------------------------------
 Center     Atomic                   Forces (Hartrees/Bohr)
 Number     Number              X              Y              Z
 -------------------------------------------------------------------
      1       32           0.000055641    0.000064115    0.000054945
      2       83          -0.000137044   -0.000064439   -0.000096277
      3       83           0.000024294    0.000027731    0.000104002
      4       50          -0.000015606    0.000052870   -0.000044358
      5       83           0.000051878    0.000019470   -0.000013880
      6       83           0.000017216    0.000020194    0.000042077
      7       32          -0.000039422   -0.000123452    0.000109848
      8       32           0.000004305   -0.000053235   -0.000117195
      9       50           0.000038739    0.000056748   -0.000039162
 -------------------------------------------------------------------
 Cartesian Forces:  Max     0.000137044 RMS     0.000065842
 Force constants in Cartesian coordinates: 
                1             2             3             4             5 
      1  0.542230D-01
      2  0.898040D-02  0.637471D-01
      3  0.411157D-02  0.113988D-01  0.626607D-01
      4 -0.549019D-02  0.887227D-02 -0.278754D-02  0.580051D-01
      5  0.101650D-01 -0.340895D-01  0.930267D-03 -0.414142D-02  0.599779D-01
      6 -0.308955D-02 -0.132423D-04 -0.350111D-02  0.215883D-01  0.707851D-03
      7  0.399390D-03 -0.284911D-02 -0.714941D-03 -0.355656D-03  0.238287D-02
      8  0.858686D-03 -0.252141D-02 -0.162637D-02  0.210890D-02 -0.668942D-02
      9  0.429932D-02 -0.391839D-02 -0.175703D-02 -0.348448D-02 -0.719356D-02
     10 -0.240900D-01 -0.167443D-01  0.684544D-02 -0.143299D-01  0.548449D-02
     11 -0.186893D-01 -0.124541D-01  0.438833D-02  0.711309D-02  0.188915D-02
     12  0.498701D-02  0.194785D-02 -0.232173D-02  0.146204D-02 -0.161651D-02
     13 -0.518456D-03 -0.324960D-02  0.173445D-02 -0.254949D-01 -0.126412D-01
     14 -0.789348D-03 -0.334525D-02  0.143726D-02 -0.153210D-01 -0.146362D-01
     15 -0.675264D-03 -0.416278D-02 -0.971852D-03 -0.114568D-01 -0.422585D-02
     16 -0.162032D-02  0.245347D-03 -0.105228D-02 -0.316991D-02 -0.936090D-03
     17 -0.237341D-02 -0.434493D-02 -0.180349D-03  0.589393D-02  0.373493D-02
     18 -0.444420D-02  0.730448D-04 -0.163061D-02 -0.520943D-02 -0.271692D-02
     19 -0.140080D-01  0.176403D-02 -0.178991D-01 -0.579887D-02  0.443399D-02
     20 -0.276979D-02 -0.166619D-02 -0.377101D-02  0.844547D-04 -0.693347D-02
     21 -0.182746D-01  0.208809D-02 -0.223164D-01 -0.664414D-03  0.587317D-02
     22 -0.408487D-02  0.165043D-02 -0.129371D-02 -0.155638D-02 -0.171537D-02
     23  0.135486D-02 -0.264459D-02 -0.265865D-02 -0.192876D-02  0.140546D-02
     24  0.156142D-03  0.327282D-04 -0.330336D-02  0.695337D-03  0.260507D-03
     25 -0.481050D-02  0.133055D-02  0.110561D-01 -0.180934D-02 -0.303222D-02
     26  0.326288D-02 -0.268109D-02 -0.991828D-02 -0.268142D-02 -0.465882D-02
     27  0.129296D-01 -0.744609D-02 -0.268587D-01 -0.143062D-03  0.798104D-02
                6             7             8             9            10 
      6  0.607646D-01
      7 -0.422683D-02  0.475785D-01
      8 -0.109864D-01 -0.825471D-02  0.685126D-01
      9 -0.324539D-01 -0.182363D-01  0.817739D-02  0.669139D-01
     10  0.159714D-02 -0.329794D-02 -0.852489D-03  0.207477D-02  0.513375D-01
     11 -0.175222D-02  0.355876D-02  0.338663D-02 -0.647209D-02  0.111258D-01
     12 -0.356907D-02 -0.546282D-03  0.143511D-02 -0.385503D-02 -0.113654D-01
     13 -0.986440D-02 -0.240929D-01 -0.704770D-02  0.232575D-01 -0.642876D-03
     14 -0.439538D-02 -0.823330D-02 -0.664444D-02  0.545840D-02  0.202696D-02
     15 -0.120287D-02  0.224130D-01  0.327503D-02 -0.195671D-01  0.486659D-02
     16  0.664481D-03 -0.530264D-02 -0.647865D-03 -0.383909D-04 -0.760644D-02
     17  0.392639D-03  0.592151D-02 -0.537455D-03  0.777621D-03 -0.449470D-02
     18 -0.249973D-02  0.378188D-02  0.670544D-03 -0.112094D-02 -0.927549D-02
     19  0.147416D-02 -0.456098D-02  0.276048D-02 -0.353827D-02  0.809300D-03
     20  0.103480D-02  0.439116D-03 -0.680083D-02  0.271725D-02  0.370007D-03
     21 -0.205423D-02  0.133380D-02 -0.114673D-02  0.424476D-03  0.247896D-02
     22 -0.712573D-02 -0.107099D-01  0.142961D-01 -0.819623D-02  0.209100D-02
     23  0.513347D-02  0.122857D-01 -0.202670D-01  0.677971D-02  0.157546D-02
     24 -0.628143D-02 -0.638630D-02  0.499593D-02 -0.874592D-02 -0.176164D-02
     25 -0.101762D-02  0.342211D-03 -0.322143D-02  0.386208D-02 -0.427065D-02
     26  0.987852D-02 -0.525086D-02 -0.284387D-01 -0.632634D-02  0.150878D-02
     27 -0.920219D-02  0.258193D-02 -0.479449D-02  0.161483D-03  0.453965D-02
               11            12            13            14            15 
     11  0.389373D-01
     12  0.863456D-02  0.610974D-01
     13  0.153593D-03  0.438040D-02  0.675768D-01
     14 -0.186805D-01 -0.739187D-02  0.942439D-02  0.767234D-01
     15 -0.782351D-02 -0.203180D-02 -0.460179D-02 -0.106318D-01  0.394182D-01
     16 -0.339458D-02 -0.991571D-02 -0.157605D-01  0.151280D-01 -0.135897D-01
     17 -0.410746D-03 -0.686562D-02  0.139269D-01 -0.246844D-01  0.120973D-01
     18 -0.613197D-02 -0.305355D-01 -0.137078D-01  0.141380D-01 -0.893177D-02
     19 -0.691631D-03  0.495866D-02  0.255504D-02 -0.164547D-02  0.223856D-02
     20 -0.567339D-02  0.396639D-02  0.748553D-02 -0.695910D-02  0.130353D-02
     21  0.589481D-02 -0.936078D-02 -0.123081D-02  0.100894D-02 -0.294897D-02
     22  0.691329D-03  0.606761D-02 -0.110840D-02 -0.639607D-03  0.229776D-02
     23 -0.268409D-02 -0.449199D-03 -0.185095D-04 -0.163373D-02  0.632748D-02
     24  0.773772D-03 -0.660737D-02 -0.218732D-03 -0.552490D-03 -0.170703D-02
     25  0.132876D-03 -0.283092D-04 -0.251389D-02  0.493598D-04 -0.149240D-02
     26 -0.431029D-02  0.339282D-03 -0.803336D-02 -0.139830D-03  0.384061D-02
     27  0.248831D-02 -0.281606D-02  0.251205D-03  0.928913D-03 -0.205685D-02
               16            17            18            19            20 
     16  0.791212D-01
     17  0.121092D-01  0.565202D-01
     18  0.143781D-01 -0.797176D-02  0.604353D-01
     19 -0.154490D-01 -0.200368D-01 -0.581510D-02  0.627899D-01
     20 -0.162492D-01 -0.226231D-01 -0.999241D-03  0.628504D-03  0.647143D-01
     21 -0.505507D-02 -0.302958D-02  0.666572D-03  0.130062D-01  0.562521D-02
     22 -0.249477D-01 -0.915693D-02  0.168053D-01 -0.367793D-03  0.620986D-02
     23 -0.625966D-02 -0.321618D-02  0.301084D-02  0.368569D-02 -0.103044D-01
     24  0.149281D-01  0.447471D-02 -0.158817D-01  0.127382D-02 -0.916491D-02
     25 -0.526473D-02 -0.178964D-02  0.348678D-02 -0.259696D-01  0.380149D-02
     26  0.482629D-05 -0.443836D-02 -0.725576D-04  0.910120D-02 -0.375382D-02
     27 -0.319553D-03  0.305044D-03 -0.501636D-03  0.430110D-02 -0.712022D-03
               21            22            23            24            25 
     21  0.520347D-01
     22  0.280562D-02  0.616179D-01
     23 -0.141367D-01 -0.149883D-02  0.408552D-01
     24 -0.183328D-01  0.269633D-02  0.277466D-02  0.722753D-01
     25  0.560034D-02 -0.209338D-01 -0.919595D-02 -0.113830D-01  0.652303D-01
     26 -0.217723D-02 -0.983700D-02 -0.151065D-02 -0.359491D-02  0.119250D-01
     27  0.188738D-02 -0.140569D-01 -0.678160D-02 -0.114158D-01 -0.100840D-01
               26            27 
     26  0.499316D-01
     27  0.803090D-02  0.508023D-01
 Leave Link  716 at Tue Mar  6 15:01:01 2018, MaxMem=   536870912 cpu:         0.5
 (Enter /share/apps//mg09/l103.exe)

 GradGradGradGradGradGradGradGradGradGradGradGradGradGradGradGradGradGrad
 Berny optimization.
 Search for a local minimum.
 Step number   1 out of a maximum of    2
 All quantities printed in internal units (Hartrees-Bohrs-Radians)
 Second derivative matrix not updated -- analytic derivatives used.
 ITU=  0
     Eigenvalues ---    0.01092   0.02034   0.03128   0.03846   0.04571
     Eigenvalues ---    0.05150   0.05427   0.05553   0.05760   0.06304
     Eigenvalues ---    0.06635   0.07382   0.08160   0.09311   0.09843
     Eigenvalues ---    0.10642   0.11439   0.11886   0.12533   0.14020
     Eigenvalues ---    0.14419
 Angle between quadratic step and forces=  40.27 degrees.
 Linear search not attempted -- first point.
 TrRot=  0.000045 -0.000081  0.000057 -0.000002  0.000015 -0.000002
 Variable       Old X    -DE/DX   Delta X   Delta X   Delta X     New X
                                 (Linear)    (Quad)   (Total)
    X1        1.58278   0.00006   0.00000   0.00288   0.00299   1.58577
    Y1        4.41380   0.00006   0.00000   0.00017   0.00008   4.41388
    Z1        2.84421   0.00005   0.00000   0.00066   0.00070   2.84491
    X2        3.06112  -0.00014   0.00000  -0.00286  -0.00277   3.05835
    Y2       -0.69813  -0.00006   0.00000  -0.00179  -0.00189  -0.70002
    Z2        2.88395  -0.00010   0.00000   0.00010   0.00012   2.88407
    X3        2.57315   0.00002   0.00000   0.00208   0.00208   2.57523
    Y3       -2.50217   0.00003   0.00000   0.00064   0.00055  -2.50162
    Z3       -2.60164   0.00010   0.00000   0.00171   0.00173  -2.59991
    X4       -2.63555  -0.00002   0.00000  -0.00029  -0.00019  -2.63573
    Y4        1.44663   0.00005   0.00000   0.00283   0.00276   1.44939
    Z4        3.74106  -0.00004   0.00000  -0.00100  -0.00090   3.74016
    X5       -1.51167   0.00005   0.00000   0.00004   0.00008  -1.51159
    Y5       -3.75313   0.00002   0.00000  -0.00020  -0.00028  -3.75340
    Z5        1.15801  -0.00001   0.00000  -0.00130  -0.00122   1.15679
    X6       -4.57356   0.00002   0.00000  -0.00028  -0.00026  -4.57382
    Y6        0.27443   0.00002   0.00000   0.00009   0.00003   0.27445
    Z6       -1.47234   0.00004   0.00000  -0.00012   0.00000  -1.47234
    X7       -1.53940  -0.00004   0.00000  -0.00082  -0.00076  -1.54017
    Y7        4.62720  -0.00012   0.00000  -0.00211  -0.00219   4.62501
    Z7       -0.98592   0.00011   0.00000   0.00297   0.00305  -0.98286
    X8       -0.47329   0.00000   0.00000   0.00011   0.00009  -0.47320
    Y8        1.41950  -0.00005   0.00000  -0.00147  -0.00155   1.41795
    Z8       -4.74070  -0.00012   0.00000  -0.00122  -0.00116  -4.74186
    X9        3.63127   0.00004   0.00000  -0.00129  -0.00126   3.63001
    Y9        3.12746   0.00006   0.00000   0.00258   0.00249   3.12995
    Z9       -1.88445  -0.00004   0.00000  -0.00232  -0.00232  -1.88677
         Item               Value     Threshold  Converged?
 Maximum Force            0.000137     0.000450     YES
 RMS     Force            0.000066     0.000300     YES
 Maximum Displacement     0.003052     0.001800     NO 
 RMS     Displacement     0.001610     0.001200     NO 
 Predicted change in Energy=-1.090133D-06
 GradGradGradGradGradGradGradGradGradGradGradGradGradGradGradGradGradGrad

 Leave Link  103 at Tue Mar  6 15:01:01 2018, MaxMem=   536870912 cpu:         0.1
 (Enter /share/apps//mg09/l9999.exe)
 1\1\GINC-COMPUTE-0-1\Freq\RPBE1PBE\def2TZVP\Bi4Ge3Sn2\RODRIGO\06-Mar-2
 018\0\\#P Geom=AllCheck Guess=TCheck SCRF=Check GenChk RPBE1PBE/def2TZ
 VP Freq\\01Final_coords.xyz_21\\0,1\Ge,0.8375728836,2.3356832915,1.505
 0914297\Bi,1.6198740527,-0.3694363351,1.5261215962\Bi,1.3616531014,-1.
 3240910898,-1.3767281077\Sn,-1.3946705942,0.7655223021,1.9796835901\Bi
 ,-0.7999411898,-1.9860699333,0.6127947855\Bi,-2.4202243761,0.145220863
 5,-0.7791295476\Ge,-0.8146178603,2.4486090687,-0.5217237545\Ge,-0.2504
 566374,0.7511684818,-2.508671537\Sn,1.9215836213,1.6549813506,-0.99720
 84547\\Version=ES64L-G09RevD.01\State=1-A\HF=-7517.8258589\RMSD=8.908e
 -10\RMSF=6.584e-05\ZeroPoint=0.0059075\Thermal=0.0233071\Dipole=0.0240
 207,-0.9947153,0.3422476\DipoleDeriv=-0.1714278,0.0889317,0.122265,0.0
 549546,0.0328883,0.1400578,0.0964247,0.15337,-0.0856522,0.0631098,-0.0
 392747,0.0375556,-0.0219407,0.0204963,0.0074075,-0.0061267,-0.0139594,
 0.0257741,0.0107291,-0.0440478,-0.0628116,-0.0065038,-0.0407117,0.0746
 218,0.0208822,0.021878,-0.074715,0.1787222,-0.0641054,-0.1020142,-0.02
 82159,0.0165508,0.0304417,-0.1125831,0.0444004,0.2278976,-0.1072823,0.
 0226017,0.0174907,0.0491822,0.0080628,-0.0186095,-0.0051448,-0.0429912
 ,0.0114533,0.0553611,-0.0222089,0.0628949,-0.088861,-0.0144456,0.00724
 81,0.0497426,0.0208103,-0.1223341,-0.0938221,-0.1060826,-0.0185526,-0.
 06865,-0.0266449,-0.0708191,-0.0347797,-0.0597792,-0.1019532,-0.168408
 3,-0.0188106,0.0468389,0.0036464,-0.0850989,-0.0704251,0.0118096,-0.04
 16913,0.0249119,0.2330182,0.1829966,-0.1036667,0.1063882,0.0889029,-0.
 0999233,-0.0202246,-0.0820377,0.0946177\Polar=381.0317672,5.9687574,37
 4.7687651,-9.9533987,1.6621269,373.2418942\PG=C01 [X(Bi4Ge3Sn2)]\NImag
 =0\\0.05422298,0.00898040,0.06374709,0.00411157,0.01139879,0.06266074,
 -0.00549019,0.00887227,-0.00278754,0.05800511,0.01016498,-0.03408951,0
 .00093027,-0.00414142,0.05997790,-0.00308955,-0.00001324,-0.00350111,0
 .02158835,0.00070785,0.06076455,0.00039939,-0.00284911,-0.00071494,-0.
 00035566,0.00238287,-0.00422683,0.04757845,0.00085869,-0.00252141,-0.0
 0162637,0.00210890,-0.00668942,-0.01098644,-0.00825471,0.06851263,0.00
 429932,-0.00391839,-0.00175703,-0.00348448,-0.00719356,-0.03245391,-0.
 01823630,0.00817739,0.06691395,-0.02408999,-0.01674433,0.00684544,-0.0
 1432986,0.00548449,0.00159714,-0.00329794,-0.00085249,0.00207477,0.051
 33747,-0.01868926,-0.01245412,0.00438833,0.00711309,0.00188915,-0.0017
 5222,0.00355876,0.00338663,-0.00647209,0.01112582,0.03893732,0.0049870
 1,0.00194785,-0.00232173,0.00146204,-0.00161651,-0.00356907,-0.0005462
 8,0.00143511,-0.00385503,-0.01136542,0.00863456,0.06109735,-0.00051846
 ,-0.00324960,0.00173445,-0.02549489,-0.01264123,-0.00986440,-0.0240928
 9,-0.00704770,0.02325751,-0.00064288,0.00015359,0.00438040,0.06757684,
 -0.00078935,-0.00334525,0.00143726,-0.01532103,-0.01463622,-0.00439538
 ,-0.00823330,-0.00664444,0.00545840,0.00202696,-0.01868047,-0.00739187
 ,0.00942439,0.07672341,-0.00067526,-0.00416278,-0.00097185,-0.01145680
 ,-0.00422585,-0.00120287,0.02241305,0.00327503,-0.01956707,0.00486659,
 -0.00782351,-0.00203180,-0.00460179,-0.01063180,0.03941821,-0.00162032
 ,0.00024535,-0.00105228,-0.00316991,-0.00093609,0.00066448,-0.00530264
 ,-0.00064787,-0.00003839,-0.00760644,-0.00339458,-0.00991571,-0.015760
 48,0.01512805,-0.01358970,0.07912122,-0.00237341,-0.00434493,-0.000180
 35,0.00589393,0.00373493,0.00039264,0.00592151,-0.00053745,0.00077762,
 -0.00449470,-0.00041075,-0.00686562,0.01392689,-0.02468438,0.01209730,
 0.01210916,0.05652020,-0.00444420,0.00007304,-0.00163061,-0.00520943,-
 0.00271692,-0.00249973,0.00378188,0.00067054,-0.00112094,-0.00927549,-
 0.00613197,-0.03053552,-0.01370783,0.01413802,-0.00893177,0.01437814,-
 0.00797176,0.06043530,-0.01400804,0.00176403,-0.01789913,-0.00579887,0
 .00443399,0.00147416,-0.00456098,0.00276048,-0.00353827,0.00080930,-0.
 00069163,0.00495866,0.00255504,-0.00164547,0.00223856,-0.01544899,-0.0
 2003679,-0.00581510,0.06278992,-0.00276979,-0.00166619,-0.00377101,0.0
 0008445,-0.00693347,0.00103480,0.00043912,-0.00680083,0.00271725,0.000
 37001,-0.00567339,0.00396639,0.00748553,-0.00695910,0.00130353,-0.0162
 4918,-0.02262309,-0.00099924,0.00062850,0.06471426,-0.01827463,0.00208
 809,-0.02231638,-0.00066441,0.00587317,-0.00205423,0.00133380,-0.00114
 673,0.00042448,0.00247896,0.00589481,-0.00936078,-0.00123081,0.0010089
 4,-0.00294897,-0.00505507,-0.00302958,0.00066657,0.01300620,0.00562521
 ,0.05203470,-0.00408487,0.00165043,-0.00129371,-0.00155638,-0.00171537
 ,-0.00712573,-0.01070993,0.01429613,-0.00819623,0.00209100,0.00069133,
 0.00606761,-0.00110840,-0.00063961,0.00229776,-0.02494770,-0.00915693,
 0.01680525,-0.00036779,0.00620986,0.00280562,0.06161792,0.00135486,-0.
 00264459,-0.00265865,-0.00192876,0.00140546,0.00513347,0.01228572,-0.0
 2026701,0.00677971,0.00157546,-0.00268409,-0.00044920,-0.00001851,-0.0
 0163373,0.00632748,-0.00625966,-0.00321618,0.00301084,0.00368569,-0.01
 030438,-0.01413670,-0.00149883,0.04085515,0.00015614,0.00003273,-0.003
 30336,0.00069534,0.00026051,-0.00628143,-0.00638630,0.00499593,-0.0087
 4592,-0.00176164,0.00077377,-0.00660737,-0.00021873,-0.00055249,-0.001
 70703,0.01492808,0.00447471,-0.01588166,0.00127382,-0.00916491,-0.0183
 3277,0.00269633,0.00277466,0.07227531,-0.00481050,0.00133055,0.0110561
 4,-0.00180934,-0.00303222,-0.00101762,0.00034221,-0.00322143,0.0038620
 8,-0.00427065,0.00013288,-0.00002831,-0.00251389,0.00004936,-0.0014924
 0,-0.00526473,-0.00178964,0.00348678,-0.02596958,0.00380149,0.00560034
 ,-0.02093384,-0.00919595,-0.01138304,0.06523033,0.00326288,-0.00268109
 ,-0.00991828,-0.00268142,-0.00465882,0.00987852,-0.00525086,-0.0284387
 0,-0.00632634,0.00150878,-0.00431029,0.00033928,-0.00803336,-0.0001398
 3,0.00384061,0.00000483,-0.00443836,-0.00007256,0.00910120,-0.00375382
 ,-0.00217723,-0.00983700,-0.00151065,-0.00359491,0.01192496,0.04993157
 ,0.01292960,-0.00744609,-0.02685866,-0.00014306,0.00798104,-0.00920219
 ,0.00258193,-0.00479449,0.00016148,0.00453965,0.00248831,-0.00281606,0
 .00025121,0.00092891,-0.00205685,-0.00031955,0.00030504,-0.00050164,0.
 00430110,-0.00071202,0.00188738,-0.01405691,-0.00678160,-0.01141577,-0
 .01008397,0.00803090,0.05080230\\-0.00005564,-0.00006411,-0.00005495,0
 .00013704,0.00006444,0.00009628,-0.00002429,-0.00002773,-0.00010400,0.
 00001561,-0.00005287,0.00004436,-0.00005188,-0.00001947,0.00001388,-0.
 00001722,-0.00002019,-0.00004208,0.00003942,0.00012345,-0.00010985,-0.
 00000431,0.00005324,0.00011720,-0.00003874,-0.00005675,0.00003916\\\@


 IF YOU DON'T HAVE THE LAW - ARGUE THE FACTS.
 IF YOU DON'T HAVE THE FACTS - ARGUE THE LAW.
 IF YOU DON'T HAVE EITHER - POUND THE TABLE.
 Job cpu time:       0 days  4 hours 40 minutes 36.5 seconds.
 File lengths (MBytes):  RWF=    299 Int=      0 D2E=      0 Chk=     16 Scr=      1
 Normal termination of Gaussian 09 at Tue Mar  6 15:01:03 2018.
