 Entering Gaussian System, Link 0=/share/apps/mg09/g09
 Initial command:
 /share/apps//mg09/l1.exe "/state/partition1/gauss_tmp/Gau-8179.inp" -scrdir="/state/partition1/gauss_tmp/"
 Entering Link 1 = /share/apps//mg09/l1.exe PID=      8188.
  
 Copyright (c) 1988,1990,1992,1993,1995,1998,2003,2009,2013,
            Gaussian, Inc.  All Rights Reserved.
  
 This is part of the Gaussian(R) 09 program.  It is based on
 the Gaussian(R) 03 system (copyright 2003, Gaussian, Inc.),
 the Gaussian(R) 98 system (copyright 1998, Gaussian, Inc.),
 the Gaussian(R) 94 system (copyright 1995, Gaussian, Inc.),
 the Gaussian 92(TM) system (copyright 1992, Gaussian, Inc.),
 the Gaussian 90(TM) system (copyright 1990, Gaussian, Inc.),
 the Gaussian 88(TM) system (copyright 1988, Gaussian, Inc.),
 the Gaussian 86(TM) system (copyright 1986, Carnegie Mellon
 University), and the Gaussian 82(TM) system (copyright 1983,
 Carnegie Mellon University). Gaussian is a federally registered
 trademark of Gaussian, Inc.
  
 This software contains proprietary and confidential information,
 including trade secrets, belonging to Gaussian, Inc.
  
 This software is provided under written license and may be
 used, copied, transmitted, or stored only in accord with that
 written license.
  
 The following legend is applicable only to US Government
 contracts under FAR:
  
                    RESTRICTED RIGHTS LEGEND
  
 Use, reproduction and disclosure by the US Government is
 subject to restrictions as set forth in subparagraphs (a)
 and (c) of the Commercial Computer Software - Restricted
 Rights clause in FAR 52.227-19.
  
 Gaussian, Inc.
 340 Quinnipiac St., Bldg. 40, Wallingford CT 06492
  
  
 ---------------------------------------------------------------
 Warning -- This program may not be used in any manner that
 competes with the business of Gaussian, Inc. or will provide
 assistance to any competitor of Gaussian, Inc.  The licensee
 of this program is prohibited from giving any competitor of
 Gaussian, Inc. access to this program.  By using this program,
 the user acknowledges that Gaussian, Inc. is engaged in the
 business of creating and licensing software in the field of
 computational chemistry and represents and warrants to the
 licensee that it is not a competitor of Gaussian, Inc. and that
 it will not use this program in any manner prohibited above.
 ---------------------------------------------------------------
  

 Cite this work as:
 Gaussian 09, Revision D.01,
 M. J. Frisch, G. W. Trucks, H. B. Schlegel, G. E. Scuseria, 
 M. A. Robb, J. R. Cheeseman, G. Scalmani, V. Barone, B. Mennucci, 
 G. A. Petersson, H. Nakatsuji, M. Caricato, X. Li, H. P. Hratchian, 
 A. F. Izmaylov, J. Bloino, G. Zheng, J. L. Sonnenberg, M. Hada, 
 M. Ehara, K. Toyota, R. Fukuda, J. Hasegawa, M. Ishida, T. Nakajima, 
 Y. Honda, O. Kitao, H. Nakai, T. Vreven, J. A. Montgomery, Jr., 
 J. E. Peralta, F. Ogliaro, M. Bearpark, J. J. Heyd, E. Brothers, 
 K. N. Kudin, V. N. Staroverov, T. Keith, R. Kobayashi, J. Normand, 
 K. Raghavachari, A. Rendell, J. C. Burant, S. S. Iyengar, J. Tomasi, 
 M. Cossi, N. Rega, J. M. Millam, M. Klene, J. E. Knox, J. B. Cross, 
 V. Bakken, C. Adamo, J. Jaramillo, R. Gomperts, R. E. Stratmann, 
 O. Yazyev, A. J. Austin, R. Cammi, C. Pomelli, J. W. Ochterski, 
 R. L. Martin, K. Morokuma, V. G. Zakrzewski, G. A. Voth, 
 P. Salvador, J. J. Dannenberg, S. Dapprich, A. D. Daniels, 
 O. Farkas, J. B. Foresman, J. V. Ortiz, J. Cioslowski, 
 and D. J. Fox, Gaussian, Inc., Wallingford CT, 2013.
 
 ******************************************
 Gaussian 09:  ES64L-G09RevD.01 24-Apr-2013
                 6-Mar-2018 
 ******************************************
 %NProcShared=4
 Will use up to    4 processors via shared memory.
 %LindaWorkers=compute-0-6
 %chk=Isomer_02.chk
 %NProc=4
 Will use up to    4 processors via shared memory.
 %mem=4GB
 SetLPE:  input flags=" -vv -opt "Tsnet.Node.lindarsharg: ssh" "
 SetLPE:    new flags=" -vv -opt "Tsnet.Node.lindarsharg: ssh"  -nodelist 'compute-0-6.local'"
 Will use up to    1 processors via Linda.
 ----------------------------------------------------------------------
 #p PBE1PBE/Def2TZVP scf=(maxcycle=768) opt=(cartesian,maxcycle=512) fr
 eq
 ----------------------------------------------------------------------
 1/6=512,10=7,14=-1,18=10,26=3,38=1/1,3;
 2/12=2,17=6,18=5,29=2,40=1/2;
 3/5=44,7=101,11=2,16=1,25=1,30=1,71=1,74=-13/1,2,3;
 4//1;
 5/5=2,7=768,38=5/2;
 6/7=2,8=2,9=2,10=2,28=1/1;
 7/7=1,29=1/1,2,3,16;
 1/6=512,10=7,14=-1,18=10,26=3/3(2);
 2/29=1/2;
 99/12=1/99;
 2/29=1/2;
 3/5=44,7=101,11=2,16=1,25=1,30=1,71=1,74=-13/1,2,3;
 4/5=5,16=3,69=1/1;
 5/5=2,7=768,38=5/2;
 7/7=1/1,2,3,16;
 1/6=512,14=-1,18=10,26=3/3(-5);
 2/29=1/2;
 6/7=2,8=2,9=2,10=2,19=2,28=1/1;
 99/9=1,12=1/99;
 Leave Link    1 at Tue Mar  6 11:56:28 2018, MaxMem=   536870912 cpu:         0.4
 (Enter /share/apps//mg09/l101.exe)
 ---------------------
 01Final_coords.xyz_02
 ---------------------
 Symbolic Z-matrix:
 Charge =  0 Multiplicity = 1
 32                    0.91747   1.51205   1.97135 
 32                   -1.08674  -0.0051    2.95013 
 32                    0.93264  -1.50244   1.97252 
 50                   -2.01069   1.65376   0.76546 
 50                   -1.99799  -1.6689    0.76498 
 83                   -1.42739  -0.00714  -1.81043 
 83                    0.52432   2.15683  -0.89535 
 83                    0.54335  -2.15295  -0.8935 
 83                    2.48027   0.01065   0.0194 
 
 NAtoms=      9 NQM=        9 NQMF=       0 NMMI=      0 NMMIF=      0
                NMic=       0 NMicF=      0.
                    Isotopes and Nuclear Properties:
 (Nuclear quadrupole moments (NQMom) in fm**2, nuclear magnetic moments (NMagM)
  in nuclear magnetons)

  Atom         1           2           3           4           5           6           7           8           9
 IAtWgt=          74          74          74         118         118         209         209         209         209
 AtmWgt=  73.9211788  73.9211788  73.9211788 117.9018000 117.9018000 208.9804000 208.9804000 208.9804000 208.9804000
 NucSpn=           0           0           0           0           0           9           9           9           9
 AtZEff=   0.0000000   0.0000000   0.0000000   0.0000000   0.0000000   0.0000000   0.0000000   0.0000000   0.0000000
 NQMom=    0.0000000   0.0000000   0.0000000   0.0000000   0.0000000 -51.6000000 -51.6000000 -51.6000000 -51.6000000
 NMagM=    0.0000000   0.0000000   0.0000000   0.0000000   0.0000000   4.1106000   4.1106000   4.1106000   4.1106000
 AtZNuc=  32.0000000  32.0000000  32.0000000  50.0000000  50.0000000  83.0000000  83.0000000  83.0000000  83.0000000
 Leave Link  101 at Tue Mar  6 11:56:30 2018, MaxMem=   536870912 cpu:         0.3
 (Enter /share/apps//mg09/l103.exe)

 GradGradGradGradGradGradGradGradGradGradGradGradGradGradGradGradGradGrad
 Berny optimization.
 Initialization pass.
 No Z-matrix variables, so optimization will use Cartesian coordinates.
 Trust Radius=3.00D-01 FncErr=1.00D-07 GrdErr=1.00D-06
 Number of steps in this run=    100 maximum allowed number of steps=    100.
 GradGradGradGradGradGradGradGradGradGradGradGradGradGradGradGradGradGrad

 Leave Link  103 at Tue Mar  6 11:56:35 2018, MaxMem=   536870912 cpu:         0.1
 (Enter /share/apps//mg09/l202.exe)
 ---------------------------------------------------------------------------------------------------
                            Z-MATRIX (ANGSTROMS AND DEGREES)
   CD    Cent   Atom    N1       Length/X        N2       Alpha/Y        N3        Beta/Z          J
 ---------------------------------------------------------------------------------------------------
      1      1  Ge       0   0.917474          1.512048          1.971347
      2      2  Ge       0  -1.086743         -0.005102          2.950133
      3      3  Ge       0   0.932643         -1.502439          1.972522
      4      4  Sn       0  -2.010687          1.653756          0.765464
      5      5  Sn       0  -1.997987         -1.668899          0.764977
      6      6  Bi       0  -1.427393         -0.007141         -1.810430
      7      7  Bi       0   0.524323          2.156831         -0.895353
      8      8  Bi       0   0.543347         -2.152952         -0.893500
      9      9  Bi       0   2.480274          0.010646          0.019403
 ---------------------------------------------------------------------------------------------------
                         Z-Matrix orientation:                         
 ---------------------------------------------------------------------
 Center     Atomic      Atomic             Coordinates (Angstroms)
 Number     Number       Type             X           Y           Z
 ---------------------------------------------------------------------
      1         32           0        0.917474    1.512048    1.971347
      2         32           0       -1.086743   -0.005102    2.950133
      3         32           0        0.932643   -1.502439    1.972522
      4         50           0       -2.010687    1.653756    0.765464
      5         50           0       -1.997987   -1.668899    0.764977
      6         83           0       -1.427393   -0.007141   -1.810430
      7         83           0        0.524323    2.156831   -0.895353
      8         83           0        0.543347   -2.152952   -0.893500
      9         83           0        2.480274    0.010646    0.019403
 ---------------------------------------------------------------------
                    Distance matrix (angstroms):
                    1          2          3          4          5
     1  Ge   0.000000
     2  Ge   2.697527   0.000000
     3  Ge   3.014525   2.697343   0.000000
     4  Sn   3.169915   2.894523   4.481266   0.000000
     5  Sn   4.480364   2.893699   3.174030   3.322679   0.000000
     6  Bi   4.701933   4.772736   4.702809   3.119942   3.117649
     7  Bi   2.964504   4.696515   4.667086   3.072080   4.873905
     8  Bi   4.666856   4.695100   2.964591   4.875067   3.072984
     9  Bi   2.916614   4.616604   2.915349   4.839953   4.840617
                    6          7          8          9
     6  Bi   0.000000
     7  Bi   3.054396   0.000000
     8  Bi   3.054355   4.309825   0.000000
     9  Bi   4.314912   3.044443   3.044049   0.000000
 Stoichiometry    Bi4Ge3Sn2
 Framework group  C1[X(Bi4Ge3Sn2)]
 Deg. of freedom    21
 Full point group                 C1      NOp   1
 Largest Abelian subgroup         C1      NOp   1
 Largest concise Abelian subgroup C1      NOp   1
                         Standard orientation:                         
 ---------------------------------------------------------------------
 Center     Atomic      Atomic             Coordinates (Angstroms)
 Number     Number       Type             X           Y           Z
 ---------------------------------------------------------------------
      1         32           0        0.917465    1.512053    1.971347
      2         32           0       -1.086743   -0.005108    2.950133
      3         32           0        0.932652   -1.502434    1.972522
      4         50           0       -2.010696    1.653745    0.765464
      5         50           0       -1.997977   -1.668910    0.764977
      6         83           0       -1.427393   -0.007149   -1.810430
      7         83           0        0.524311    2.156834   -0.895353
      8         83           0        0.543359   -2.152949   -0.893500
      9         83           0        2.480274    0.010660    0.019403
 ---------------------------------------------------------------------
 Rotational constants (GHZ):      0.0953571      0.0942125      0.0853750
 Leave Link  202 at Tue Mar  6 11:56:35 2018, MaxMem=   536870912 cpu:         0.0
 (Enter /share/apps//mg09/l301.exe)
 Standard basis: def2TZVP (5D, 7F)
 Ernie: Thresh=  0.10000D-02 Tol=  0.10000D-05 Strict=F.
 There are   519 symmetry adapted cartesian basis functions of A   symmetry.
 There are   444 symmetry adapted basis functions of A   symmetry.
   444 basis functions,   963 primitive gaussians,   519 cartesian basis functions
   116 alpha electrons      116 beta electrons
       nuclear repulsion energy      3575.0765903428 Hartrees.
 IExCor= 1009 DFT=T Ex+Corr=PBE1PBE ExCW=0 ScaHFX=  0.250000
 ScaDFX=  0.750000  0.750000  1.000000  1.000000 ScalE2=  1.000000  1.000000
 IRadAn=      0 IRanWt=     -1 IRanGd=            0 ICorTp=0 IEmpDi=  4
 NAtoms=    9 NActive=    9 NUniq=    9 SFac= 1.00D+00 NAtFMM=   60 NAOKFM=F Big=F
 Integral buffers will be    131072 words long.
 Raffenetti 2 integral format.
 Two-electron integral symmetry is turned on.
 Leave Link  301 at Tue Mar  6 11:56:39 2018, MaxMem=   536870912 cpu:         0.2
 (Enter /share/apps//mg09/l302.exe)
 NPDir=0 NMtPBC=     1 NCelOv=     1 NCel=       1 NClECP=     1 NCelD=      1
         NCelK=      1 NCelE2=     1 NClLst=     1 CellRange=     0.0.
 One-electron integrals computed using PRISM.
   1 Symmetry operations used in ECPInt.
 ECPInt:  NShTT=   10440 NPrTT=   41973 LenC2=    9685 LenP2D=   27395.
 LDataN:  DoStor=T MaxTD1= 8 Len=  415
 NBasis=   444 RedAO= T EigKep=  1.46D-03  NBF=   444
 NBsUse=   444 1.00D-06 EigRej= -1.00D+00 NBFU=   444
 Precomputing XC quadrature grid using
 IXCGrd= 4 IRadAn=           0 IRanWt=          -1 IRanGd=           0 AccXCQ= 0.00D+00.
 Defaulting to unpruned grid for atomic number  50.
 Defaulting to unpruned grid for atomic number  83.
 Generated NRdTot=       0 NPtTot=           0 NUsed=           0 NTot=          32
 NSgBfM=   498   498   498   498   498 MxSgAt=     9 MxSgA2=     9.
 Leave Link  302 at Tue Mar  6 11:56:52 2018, MaxMem=   536870912 cpu:        33.1
 (Enter /share/apps//mg09/l303.exe)
 DipDrv:  MaxL=1.
 Leave Link  303 at Tue Mar  6 11:57:00 2018, MaxMem=   536870912 cpu:         0.2
 (Enter /share/apps//mg09/l401.exe)
 ExpMin= 4.62D-02 ExpMax= 4.66D+05 ExpMxC= 4.50D+03 IAcc=2 IRadAn=         4 AccDes= 0.00D+00
 Harris functional with IExCor= 1009 and IRadAn=       4 diagonalized for initial guess.
 HarFok:  IExCor= 1009 AccDes= 0.00D+00 IRadAn=         4 IDoV= 1 UseB2=F ITyADJ=14
 ICtDFT=  3500011 ScaDFX=  1.000000  1.000000  1.000000  1.000000
 Defaulting to unpruned grid for atomic number  50.
 Defaulting to unpruned grid for atomic number  50.
 Defaulting to unpruned grid for atomic number  50.
 Defaulting to unpruned grid for atomic number  50.
 FoFCou: FMM=F IPFlag=           0 FMFlag=      100000 FMFlg1=           0
         NFxFlg=           0 DoJE=T BraDBF=F KetDBF=T FulRan=T
         wScrn=  0.000000 ICntrl=     500 IOpCl=  0 I1Cent=   200000004 NGrid=           0
         NMat0=    1 NMatS0=      1 NMatT0=    0 NMatD0=    1 NMtDS0=    0 NMtDT0=    0
 Petite list used in FoFCou.
 Harris En= -7518.62970960798    
 JPrj=0 DoOrth=F DoCkMO=F.
 Leave Link  401 at Tue Mar  6 11:57:13 2018, MaxMem=   536870912 cpu:        11.8
 (Enter /share/apps//mg09/l502.exe)
 Closed shell SCF:
 Using DIIS extrapolation, IDIIS=  1040.
 Integral symmetry usage will be decided dynamically.
 IVT=     1410107 IEndB=     1410107 NGot=   536870912 MDV=   536322046
 LenX=   536322046 LenY=   536052166
 Requested convergence on RMS density matrix=1.00D-08 within 768 cycles.
 Requested convergence on MAX density matrix=1.00D-06.
 Requested convergence on             energy=1.00D-06.
 No special actions if energy rises.
 Fock matrices will be formed incrementally for  20 cycles.

 Cycle   1  Pass 1  IDiag  1:
 FoFJK:  IHMeth= 1 ICntrl=       0 DoSepK=F KAlg= 0 I1Cent=   0 FoldK=F
 IRaf= 880000000 NMat=   1 IRICut=       1 DoRegI=T DoRafI=F ISym2E= 0.
 FoFCou: FMM=F IPFlag=           0 FMFlag=      100000 FMFlg1=           0
         NFxFlg=           0 DoJE=F BraDBF=F KetDBF=F FulRan=T
         wScrn=  0.000000 ICntrl=       0 IOpCl=  0 I1Cent=           0 NGrid=           0
         NMat0=    1 NMatS0=      1 NMatT0=    0 NMatD0=    1 NMtDS0=    0 NMtDT0=    0
 Symmetry not used in FoFCou.
 Defaulting to unpruned grid for atomic number  50.
 Defaulting to unpruned grid for atomic number  50.
 Defaulting to unpruned grid for atomic number  50.
 Defaulting to unpruned grid for atomic number  50.
 E= -7517.13955916949    
 DIIS: error= 3.06D-02 at cycle   1 NSaved=   1.
 NSaved= 1 IEnMin= 1 EnMin= -7517.13955916949     IErMin= 1 ErrMin= 3.06D-02
 ErrMax= 3.06D-02  0.00D+00 EMaxC= 1.00D-01 BMatC= 1.55D+00 BMatP= 1.55D+00
 IDIUse=3 WtCom= 6.94D-01 WtEn= 3.06D-01
 Coeff-Com:  0.100D+01
 Coeff-En:   0.100D+01
 Coeff:      0.100D+01
 Gap=     0.121 Goal=   None    Shift=    0.000
 GapD=    0.121 DampG=1.000 DampE=0.500 DampFc=0.5000 IDamp=-1.
 Damping current iteration by 5.00D-01
 RMSDP=7.27D-03 MaxDP=2.39D-01              OVMax= 9.96D-01

 Cycle   2  Pass 1  IDiag  1:
 RMSU=  3.63D-03    CP:  1.01D+00
 E= -7516.15829331772     Delta-E=        0.981265851769 Rises=F Damp=T
 DIIS: error= 2.70D-02 at cycle   2 NSaved=   2.
 NSaved= 2 IEnMin= 1 EnMin= -7517.13955916949     IErMin= 2 ErrMin= 2.70D-02
 ErrMax= 2.70D-02  0.00D+00 EMaxC= 1.00D-01 BMatC= 6.13D-01 BMatP= 1.55D+00
 IDIUse=3 WtCom= 7.30D-01 WtEn= 2.70D-01
 Coeff-Com:  0.307D+00 0.693D+00
 Coeff-En:   0.736D+00 0.264D+00
 Coeff:      0.422D+00 0.578D+00
 Gap=     0.018 Goal=   None    Shift=    0.000
 RMSDP=4.65D-03 MaxDP=1.54D-01 DE= 9.81D-01 OVMax= 9.11D-01

 Cycle   3  Pass 1  IDiag  1:
 RMSU=  3.22D-03    CP:  1.01D+00  7.75D-02
 E= -7515.26939542185     Delta-E=        0.888897895877 Rises=F Damp=F
 DIIS: error= 5.94D-02 at cycle   3 NSaved=   3.
 NSaved= 3 IEnMin= 1 EnMin= -7517.13955916949     IErMin= 2 ErrMin= 2.70D-02
 ErrMax= 5.94D-02  0.00D+00 EMaxC= 1.00D-01 BMatC= 1.99D+00 BMatP= 6.13D-01
 IDIUse=2 WtCom= 0.00D+00 WtEn= 1.00D+00
 Rare condition: small coef for last iteration:  0.000D+00
 Coeff-En:   0.537D+00 0.269D+00 0.193D+00
 Coeff:      0.537D+00 0.269D+00 0.193D+00
 Gap=     0.255 Goal=   None    Shift=    0.000
 RMSDP=5.45D-03 MaxDP=1.63D-01 DE= 8.89D-01 OVMax= 7.28D-01

 Cycle   4  Pass 1  IDiag  1:
 RMSU=  2.54D-03    CP:  1.01D+00  1.02D+00 -5.60D-02
 E= -7516.09961425513     Delta-E=       -0.830218833278 Rises=F Damp=F
 DIIS: error= 3.88D-02 at cycle   4 NSaved=   4.
 NSaved= 4 IEnMin= 1 EnMin= -7517.13955916949     IErMin= 2 ErrMin= 2.70D-02
 ErrMax= 3.88D-02  0.00D+00 EMaxC= 1.00D-01 BMatC= 1.30D+00 BMatP= 6.13D-01
 IDIUse=2 WtCom= 0.00D+00 WtEn= 1.00D+00
 EnCoef did     8 forward-backward iterations
 Coeff-En:   0.521D+00 0.000D+00 0.112D+00 0.367D+00
 Coeff:      0.521D+00 0.000D+00 0.112D+00 0.367D+00
 Gap=     0.164 Goal=   None    Shift=    0.000
 RMSDP=3.17D-03 MaxDP=9.44D-02 DE=-8.30D-01 OVMax= 4.53D-01

 Cycle   5  Pass 1  IDiag  1:
 RMSU=  1.27D-03    CP:  1.00D+00  3.99D-01  3.21D-01  4.65D-01
 E= -7517.73968637387     Delta-E=       -1.640072118744 Rises=F Damp=F
 DIIS: error= 8.82D-03 at cycle   5 NSaved=   5.
 NSaved= 5 IEnMin= 5 EnMin= -7517.73968637387     IErMin= 5 ErrMin= 8.82D-03
 ErrMax= 8.82D-03  0.00D+00 EMaxC= 1.00D-01 BMatC= 1.47D-01 BMatP= 6.13D-01
 IDIUse=3 WtCom= 9.12D-01 WtEn= 8.82D-02
 Coeff-Com:  0.319D+00-0.347D+00-0.150D+00 0.295D+00 0.883D+00
 Coeff-En:   0.000D+00 0.000D+00 0.000D+00 0.636D-02 0.994D+00
 Coeff:      0.291D+00-0.317D+00-0.137D+00 0.270D+00 0.893D+00
 Gap=     0.129 Goal=   None    Shift=    0.000
 RMSDP=1.13D-03 MaxDP=4.47D-02 DE=-1.64D+00 OVMax= 1.21D-01

 Cycle   6  Pass 1  IDiag  1:
 RMSU=  5.25D-04    CP:  1.00D+00  4.14D-01  4.43D-02  5.30D-01  6.61D-01
 E= -7517.77719196922     Delta-E=       -0.037505595355 Rises=F Damp=F
 DIIS: error= 5.96D-03 at cycle   6 NSaved=   6.
 NSaved= 6 IEnMin= 6 EnMin= -7517.77719196922     IErMin= 6 ErrMin= 5.96D-03
 ErrMax= 5.96D-03  0.00D+00 EMaxC= 1.00D-01 BMatC= 4.29D-02 BMatP= 1.47D-01
 IDIUse=3 WtCom= 9.40D-01 WtEn= 5.96D-02
 Coeff-Com:  0.742D-01-0.300D-01-0.297D-01-0.865D-02 0.437D+00 0.557D+00
 Coeff-En:   0.000D+00 0.000D+00 0.000D+00 0.000D+00 0.389D+00 0.611D+00
 Coeff:      0.698D-01-0.282D-01-0.279D-01-0.813D-02 0.434D+00 0.560D+00
 Gap=     0.131 Goal=   None    Shift=    0.000
 RMSDP=6.14D-04 MaxDP=3.15D-02 DE=-3.75D-02 OVMax= 7.49D-02

 Cycle   7  Pass 1  IDiag  1:
 RMSU=  2.53D-04    CP:  1.00D+00  3.59D-01  1.39D-01  4.46D-01  8.15D-01
                    CP:  4.30D-01
 E= -7517.82048877171     Delta-E=       -0.043296802485 Rises=F Damp=F
 DIIS: error= 2.19D-03 at cycle   7 NSaved=   7.
 NSaved= 7 IEnMin= 7 EnMin= -7517.82048877171     IErMin= 7 ErrMin= 2.19D-03
 ErrMax= 2.19D-03  0.00D+00 EMaxC= 1.00D-01 BMatC= 4.39D-03 BMatP= 4.29D-02
 IDIUse=3 WtCom= 9.78D-01 WtEn= 2.19D-02
 Coeff-Com:  0.210D-01-0.380D-02-0.360D-02-0.190D-01 0.203D+00 0.380D+00
 Coeff-Com:  0.422D+00
 Coeff-En:   0.000D+00 0.000D+00 0.000D+00 0.000D+00 0.000D+00 0.848D-01
 Coeff-En:   0.915D+00
 Coeff:      0.205D-01-0.372D-02-0.353D-02-0.186D-01 0.198D+00 0.374D+00
 Coeff:      0.433D+00
 Gap=     0.131 Goal=   None    Shift=    0.000
 RMSDP=2.57D-04 MaxDP=1.15D-02 DE=-4.33D-02 OVMax= 2.83D-02

 Cycle   8  Pass 1  IDiag  1:
 RMSU=  1.48D-04    CP:  1.00D+00  3.64D-01  1.37D-01  4.56D-01  7.95D-01
                    CP:  6.20D-01  2.91D-01
 E= -7517.82344088936     Delta-E=       -0.002952117655 Rises=F Damp=F
 DIIS: error= 1.44D-03 at cycle   8 NSaved=   8.
 NSaved= 8 IEnMin= 8 EnMin= -7517.82344088936     IErMin= 8 ErrMin= 1.44D-03
 ErrMax= 1.44D-03  0.00D+00 EMaxC= 1.00D-01 BMatC= 1.65D-03 BMatP= 4.39D-03
 IDIUse=3 WtCom= 9.86D-01 WtEn= 1.44D-02
 Coeff-Com:  0.374D-02-0.442D-02 0.243D-02-0.966D-02 0.810D-01 0.199D+00
 Coeff-Com:  0.370D+00 0.357D+00
 Coeff-En:   0.000D+00 0.000D+00 0.000D+00 0.000D+00 0.000D+00 0.000D+00
 Coeff-En:   0.347D+00 0.653D+00
 Coeff:      0.368D-02-0.435D-02 0.240D-02-0.952D-02 0.798D-01 0.196D+00
 Coeff:      0.370D+00 0.362D+00
 Gap=     0.129 Goal=   None    Shift=    0.000
 RMSDP=1.14D-04 MaxDP=5.34D-03 DE=-2.95D-03 OVMax= 1.27D-02

 Cycle   9  Pass 1  IDiag  1:
 RMSU=  2.90D-05    CP:  1.00D+00  3.66D-01  1.32D-01  4.58D-01  7.94D-01
                    CP:  5.89D-01  5.21D-01  3.95D-01
 E= -7517.82544246530     Delta-E=       -0.002001575940 Rises=F Damp=F
 DIIS: error= 2.76D-04 at cycle   9 NSaved=   9.
 NSaved= 9 IEnMin= 9 EnMin= -7517.82544246530     IErMin= 9 ErrMin= 2.76D-04
 ErrMax= 2.76D-04  0.00D+00 EMaxC= 1.00D-01 BMatC= 9.13D-05 BMatP= 1.65D-03
 IDIUse=3 WtCom= 9.97D-01 WtEn= 2.76D-03
 Coeff-Com:  0.877D-03-0.141D-02 0.171D-02-0.387D-02 0.204D-01 0.424D-01
 Coeff-Com:  0.133D+00 0.190D+00 0.617D+00
 Coeff-En:   0.000D+00 0.000D+00 0.000D+00 0.000D+00 0.000D+00 0.000D+00
 Coeff-En:   0.000D+00 0.000D+00 0.100D+01
 Coeff:      0.874D-03-0.140D-02 0.171D-02-0.386D-02 0.203D-01 0.423D-01
 Coeff:      0.132D+00 0.190D+00 0.618D+00
 Gap=     0.129 Goal=   None    Shift=    0.000
 RMSDP=2.77D-05 MaxDP=1.02D-03 DE=-2.00D-03 OVMax= 3.82D-03

 Cycle  10  Pass 1  IDiag  1:
 RMSU=  1.25D-05    CP:  1.00D+00  3.65D-01  1.37D-01  4.55D-01  8.00D-01
                    CP:  5.79D-01  5.18D-01  4.68D-01  7.71D-01
 E= -7517.82556561662     Delta-E=       -0.000123151320 Rises=F Damp=F
 DIIS: error= 7.66D-05 at cycle  10 NSaved=  10.
 NSaved=10 IEnMin=10 EnMin= -7517.82556561662     IErMin=10 ErrMin= 7.66D-05
 ErrMax= 7.66D-05  0.00D+00 EMaxC= 1.00D-01 BMatC= 6.83D-06 BMatP= 9.13D-05
 IDIUse=1 WtCom= 1.00D+00 WtEn= 0.00D+00
 Coeff-Com:  0.443D-03-0.975D-03 0.338D-03-0.440D-03-0.821D-04-0.910D-02
 Coeff-Com:  0.134D-01 0.442D-01 0.327D+00 0.626D+00
 Coeff:      0.443D-03-0.975D-03 0.338D-03-0.440D-03-0.821D-04-0.910D-02
 Coeff:      0.134D-01 0.442D-01 0.327D+00 0.626D+00
 Gap=     0.129 Goal=   None    Shift=    0.000
 RMSDP=8.10D-06 MaxDP=5.13D-04 DE=-1.23D-04 OVMax= 9.28D-04

 Cycle  11  Pass 1  IDiag  1:
 RMSU=  4.70D-06    CP:  1.00D+00  3.64D-01  1.37D-01  4.54D-01  8.01D-01
                    CP:  5.78D-01  5.23D-01  4.81D-01  8.83D-01  6.52D-01
 E= -7517.82557135708     Delta-E=       -0.000005740456 Rises=F Damp=F
 DIIS: error= 3.34D-05 at cycle  11 NSaved=  11.
 NSaved=11 IEnMin=11 EnMin= -7517.82557135708     IErMin=11 ErrMin= 3.34D-05
 ErrMax= 3.34D-05  0.00D+00 EMaxC= 1.00D-01 BMatC= 1.20D-06 BMatP= 6.83D-06
 IDIUse=1 WtCom= 1.00D+00 WtEn= 0.00D+00
 Coeff-Com:  0.429D-04-0.150D-03 0.187D-03 0.218D-04-0.319D-02-0.108D-01
 Coeff-Com: -0.121D-01-0.368D-02 0.106D+00 0.375D+00 0.548D+00
 Coeff:      0.429D-04-0.150D-03 0.187D-03 0.218D-04-0.319D-02-0.108D-01
 Coeff:     -0.121D-01-0.368D-02 0.106D+00 0.375D+00 0.548D+00
 Gap=     0.129 Goal=   None    Shift=    0.000
 RMSDP=2.78D-06 MaxDP=1.78D-04 DE=-5.74D-06 OVMax= 3.10D-04

 Cycle  12  Pass 1  IDiag  1:
 RMSU=  1.11D-06    CP:  1.00D+00  3.64D-01  1.37D-01  4.54D-01  8.00D-01
                    CP:  5.78D-01  5.26D-01  4.83D-01  8.88D-01  7.70D-01
                    CP:  6.77D-01
 E= -7517.82557253777     Delta-E=       -0.000001180693 Rises=F Damp=F
 DIIS: error= 6.20D-06 at cycle  12 NSaved=  12.
 NSaved=12 IEnMin=12 EnMin= -7517.82557253777     IErMin=12 ErrMin= 6.20D-06
 ErrMax= 6.20D-06  0.00D+00 EMaxC= 1.00D-01 BMatC= 3.29D-08 BMatP= 1.20D-06
 IDIUse=1 WtCom= 1.00D+00 WtEn= 0.00D+00
 Coeff-Com:  0.109D-04-0.315D-04 0.405D-04 0.267D-04-0.992D-03-0.265D-02
 Coeff-Com: -0.581D-02-0.624D-02 0.124D-01 0.795D-01 0.176D+00 0.747D+00
 Coeff:      0.109D-04-0.315D-04 0.405D-04 0.267D-04-0.992D-03-0.265D-02
 Coeff:     -0.581D-02-0.624D-02 0.124D-01 0.795D-01 0.176D+00 0.747D+00
 Gap=     0.129 Goal=   None    Shift=    0.000
 RMSDP=6.05D-07 MaxDP=5.08D-05 DE=-1.18D-06 OVMax= 7.35D-05

 Cycle  13  Pass 1  IDiag  1:
 RMSU=  4.23D-07    CP:  1.00D+00  3.64D-01  1.37D-01  4.54D-01  8.00D-01
                    CP:  5.78D-01  5.25D-01  4.82D-01  8.99D-01  7.79D-01
                    CP:  6.97D-01  9.18D-01
 E= -7517.82557256046     Delta-E=       -0.000000022686 Rises=F Damp=F
 DIIS: error= 1.83D-06 at cycle  13 NSaved=  13.
 NSaved=13 IEnMin=13 EnMin= -7517.82557256046     IErMin=13 ErrMin= 1.83D-06
 ErrMax= 1.83D-06  0.00D+00 EMaxC= 1.00D-01 BMatC= 5.73D-09 BMatP= 3.29D-08
 IDIUse=1 WtCom= 1.00D+00 WtEn= 0.00D+00
 Coeff-Com:  0.127D-04-0.269D-04 0.618D-05 0.164D-04-0.336D-03-0.821D-03
 Coeff-Com: -0.256D-02-0.327D-02 0.267D-03 0.200D-01 0.678D-01 0.406D+00
 Coeff-Com:  0.512D+00
 Coeff:      0.127D-04-0.269D-04 0.618D-05 0.164D-04-0.336D-03-0.821D-03
 Coeff:     -0.256D-02-0.327D-02 0.267D-03 0.200D-01 0.678D-01 0.406D+00
 Coeff:      0.512D+00
 Gap=     0.129 Goal=   None    Shift=    0.000
 RMSDP=3.38D-07 MaxDP=1.77D-05 DE=-2.27D-08 OVMax= 3.65D-05

 Cycle  14  Pass 1  IDiag  1:
 RMSU=  2.27D-07    CP:  1.00D+00  3.64D-01  1.37D-01  4.54D-01  8.00D-01
                    CP:  5.78D-01  5.25D-01  4.82D-01  9.01D-01  7.82D-01
                    CP:  7.07D-01  1.00D+00  4.91D-01
 E= -7517.82557256288     Delta-E=       -0.000000002423 Rises=F Damp=F
 DIIS: error= 1.57D-06 at cycle  14 NSaved=  14.
 NSaved=14 IEnMin=14 EnMin= -7517.82557256288     IErMin=14 ErrMin= 1.57D-06
 ErrMax= 1.57D-06  0.00D+00 EMaxC= 1.00D-01 BMatC= 3.37D-09 BMatP= 5.73D-09
 IDIUse=1 WtCom= 1.00D+00 WtEn= 0.00D+00
 Coeff-Com:  0.709D-05-0.125D-04-0.246D-05 0.676D-05-0.629D-04-0.963D-04
 Coeff-Com: -0.889D-03-0.140D-02-0.319D-02-0.258D-02 0.157D-01 0.168D+00
 Coeff-Com:  0.419D+00 0.405D+00
 Coeff:      0.709D-05-0.125D-04-0.246D-05 0.676D-05-0.629D-04-0.963D-04
 Coeff:     -0.889D-03-0.140D-02-0.319D-02-0.258D-02 0.157D-01 0.168D+00
 Coeff:      0.419D+00 0.405D+00
 Gap=     0.129 Goal=   None    Shift=    0.000
 RMSDP=1.94D-07 MaxDP=9.56D-06 DE=-2.42D-09 OVMax= 2.30D-05

 Cycle  15  Pass 1  IDiag  1:
 RMSU=  1.05D-07    CP:  1.00D+00  3.64D-01  1.37D-01  4.54D-01  8.00D-01
                    CP:  5.78D-01  5.25D-01  4.83D-01  9.01D-01  7.82D-01
                    CP:  7.14D-01  1.01D+00  6.86D-01  4.39D-01
 E= -7517.82557256727     Delta-E=       -0.000000004384 Rises=F Damp=F
 DIIS: error= 6.02D-07 at cycle  15 NSaved=  15.
 NSaved=15 IEnMin=15 EnMin= -7517.82557256727     IErMin=15 ErrMin= 6.02D-07
 ErrMax= 6.02D-07  0.00D+00 EMaxC= 1.00D-01 BMatC= 5.73D-10 BMatP= 3.37D-09
 IDIUse=1 WtCom= 1.00D+00 WtEn= 0.00D+00
 Coeff-Com:  0.190D-05-0.198D-05-0.205D-05 0.175D-05 0.981D-05 0.776D-04
 Coeff-Com: -0.238D-03-0.517D-03-0.288D-02-0.632D-02-0.182D-02 0.548D-01
 Coeff-Com:  0.232D+00 0.317D+00 0.408D+00
 Coeff:      0.190D-05-0.198D-05-0.205D-05 0.175D-05 0.981D-05 0.776D-04
 Coeff:     -0.238D-03-0.517D-03-0.288D-02-0.632D-02-0.182D-02 0.548D-01
 Coeff:      0.232D+00 0.317D+00 0.408D+00
 Gap=     0.129 Goal=   None    Shift=    0.000
 RMSDP=7.85D-08 MaxDP=4.37D-06 DE=-4.38D-09 OVMax= 1.10D-05

 Cycle  16  Pass 1  IDiag  1:
 RMSU=  3.17D-08    CP:  1.00D+00  3.64D-01  1.37D-01  4.54D-01  8.00D-01
                    CP:  5.78D-01  5.25D-01  4.83D-01  9.02D-01  7.82D-01
                    CP:  7.16D-01  1.01D+00  7.15D-01  5.74D-01  4.63D-01
 E= -7517.82557256776     Delta-E=       -0.000000000489 Rises=F Damp=F
 DIIS: error= 1.69D-07 at cycle  16 NSaved=  16.
 NSaved=16 IEnMin=16 EnMin= -7517.82557256776     IErMin=16 ErrMin= 1.69D-07
 ErrMax= 1.69D-07  0.00D+00 EMaxC= 1.00D-01 BMatC= 3.12D-11 BMatP= 5.73D-10
 IDIUse=1 WtCom= 1.00D+00 WtEn= 0.00D+00
 Coeff-Com:  0.901D-07 0.352D-06-0.104D-05 0.367D-06 0.163D-04 0.604D-04
 Coeff-Com:  0.140D-04-0.608D-04-0.113D-02-0.310D-02-0.411D-02 0.430D-02
 Coeff-Com:  0.743D-01 0.125D+00 0.237D+00 0.568D+00
 Coeff:      0.901D-07 0.352D-06-0.104D-05 0.367D-06 0.163D-04 0.604D-04
 Coeff:      0.140D-04-0.608D-04-0.113D-02-0.310D-02-0.411D-02 0.430D-02
 Coeff:      0.743D-01 0.125D+00 0.237D+00 0.568D+00
 Gap=     0.129 Goal=   None    Shift=    0.000
 RMSDP=2.06D-08 MaxDP=9.96D-07 DE=-4.89D-10 OVMax= 2.61D-06

 Cycle  17  Pass 1  IDiag  1:
 RMSU=  1.13D-08    CP:  1.00D+00  3.64D-01  1.37D-01  4.54D-01  8.00D-01
                    CP:  5.78D-01  5.25D-01  4.83D-01  9.02D-01  7.83D-01
                    CP:  7.16D-01  1.02D+00  7.12D-01  5.79D-01  5.67D-01
                    CP:  7.54D-01
 E= -7517.82557256818     Delta-E=       -0.000000000422 Rises=F Damp=F
 DIIS: error= 6.49D-08 at cycle  17 NSaved=  17.
 NSaved=17 IEnMin=17 EnMin= -7517.82557256818     IErMin=17 ErrMin= 6.49D-08
 ErrMax= 6.49D-08  0.00D+00 EMaxC= 1.00D-01 BMatC= 4.61D-12 BMatP= 3.12D-11
 IDIUse=1 WtCom= 1.00D+00 WtEn= 0.00D+00
 Coeff-Com: -0.371D-07 0.138D-06-0.459D-06 0.545D-07 0.791D-05 0.217D-04
 Coeff-Com:  0.458D-04 0.412D-04-0.117D-03-0.662D-03-0.184D-02-0.516D-02
 Coeff-Com:  0.870D-02 0.229D-01 0.653D-01 0.283D+00 0.628D+00
 Coeff:     -0.371D-07 0.138D-06-0.459D-06 0.545D-07 0.791D-05 0.217D-04
 Coeff:      0.458D-04 0.412D-04-0.117D-03-0.662D-03-0.184D-02-0.516D-02
 Coeff:      0.870D-02 0.229D-01 0.653D-01 0.283D+00 0.628D+00
 Gap=     0.129 Goal=   None    Shift=    0.000
 RMSDP=7.72D-09 MaxDP=5.53D-07 DE=-4.22D-10 OVMax= 8.04D-07

 SCF Done:  E(RPBE1PBE) =  -7517.82557257     A.U. after   17 cycles
            NFock= 17  Conv=0.77D-08     -V/T= 2.1285
 KE= 6.661946303668D+03 PE=-2.474154253040D+04 EE= 6.986694063824D+03
 Leave Link  502 at Tue Mar  6 12:12:48 2018, MaxMem=   536870912 cpu:      3648.5
 (Enter /share/apps//mg09/l601.exe)
 Copying SCF densities to generalized density rwf, IOpCl= 0 IROHF=0.

 **********************************************************************

            Population analysis using the SCF density.

 **********************************************************************

 Orbital symmetries:
       Occupied  (A) (A) (A) (A) (A) (A) (A) (A) (A) (A) (A) (A)
                 (A) (A) (A) (A) (A) (A) (A) (A) (A) (A) (A) (A)
                 (A) (A) (A) (A) (A) (A) (A) (A) (A) (A) (A) (A)
                 (A) (A) (A) (A) (A) (A) (A) (A) (A) (A) (A) (A)
                 (A) (A) (A) (A) (A) (A) (A) (A) (A) (A) (A) (A)
                 (A) (A) (A) (A) (A) (A) (A) (A) (A) (A) (A) (A)
                 (A) (A) (A) (A) (A) (A) (A) (A) (A) (A) (A) (A)
                 (A) (A) (A) (A) (A) (A) (A) (A) (A) (A) (A) (A)
                 (A) (A) (A) (A) (A) (A) (A) (A) (A) (A) (A) (A)
                 (A) (A) (A) (A) (A) (A) (A) (A)
       Virtual   (A) (A) (A) (A) (A) (A) (A) (A) (A) (A) (A) (A)
                 (A) (A) (A) (A) (A) (A) (A) (A) (A) (A) (A) (A)
                 (A) (A) (A) (A) (A) (A) (A) (A) (A) (A) (A) (A)
                 (A) (A) (A) (A) (A) (A) (A) (A) (A) (A) (A) (A)
                 (A) (A) (A) (A) (A) (A) (A) (A) (A) (A) (A) (A)
                 (A) (A) (A) (A) (A) (A) (A) (A) (A) (A) (A) (A)
                 (A) (A) (A) (A) (A) (A) (A) (A) (A) (A) (A) (A)
                 (A) (A) (A) (A) (A) (A) (A) (A) (A) (A) (A) (A)
                 (A) (A) (A) (A) (A) (A) (A) (A) (A) (A) (A) (A)
                 (A) (A) (A) (A) (A) (A) (A) (A) (A) (A) (A) (A)
                 (A) (A) (A) (A) (A) (A) (A) (A) (A) (A) (A) (A)
                 (A) (A) (A) (A) (A) (A) (A) (A) (A) (A) (A) (A)
                 (A) (A) (A) (A) (A) (A) (A) (A) (A) (A) (A) (A)
                 (A) (A) (A) (A) (A) (A) (A) (A) (A) (A) (A) (A)
                 (A) (A) (A) (A) (A) (A) (A) (A) (A) (A) (A) (A)
                 (A) (A) (A) (A) (A) (A) (A) (A) (A) (A) (A) (A)
                 (A) (A) (A) (A) (A) (A) (A) (A) (A) (A) (A) (A)
                 (A) (A) (A) (A) (A) (A) (A) (A) (A) (A) (A) (A)
                 (A) (A) (A) (A) (A) (A) (A) (A) (A) (A) (A) (A)
                 (A) (A) (A) (A) (A) (A) (A) (A) (A) (A) (A) (A)
                 (A) (A) (A) (A) (A) (A) (A) (A) (A) (A) (A) (A)
                 (A) (A) (A) (A) (A) (A) (A) (A) (A) (A) (A) (A)
                 (A) (A) (A) (A) (A) (A) (A) (A) (A) (A) (A) (A)
                 (A) (A) (A) (A) (A) (A) (A) (A) (A) (A) (A) (A)
                 (A) (A) (A) (A) (A) (A) (A) (A) (A) (A) (A) (A)
                 (A) (A) (A) (A) (A) (A) (A) (A) (A) (A) (A) (A)
                 (A) (A) (A) (A) (A) (A) (A) (A) (A) (A) (A) (A)
                 (A) (A) (A) (A)
 The electronic state is 1-A.
 Alpha  occ. eigenvalues -- -399.09919-399.09917-399.08345 -49.91475 -49.91472
 Alpha  occ. eigenvalues --  -49.89963 -44.39563 -44.39561 -44.39550 -44.39548
 Alpha  occ. eigenvalues --  -44.39481 -44.39479 -44.38032 -44.38032 -44.37981
 Alpha  occ. eigenvalues --   -6.27975  -6.27973  -6.26478  -6.02017  -6.01852
 Alpha  occ. eigenvalues --   -6.01848  -6.01706  -5.13583  -5.13580  -4.43428
 Alpha  occ. eigenvalues --   -4.43426  -4.43395  -4.43393  -4.43163  -4.43160
 Alpha  occ. eigenvalues --   -4.41897  -4.41896  -4.41720  -3.74307  -3.74138
 Alpha  occ. eigenvalues --   -3.74135  -3.74094  -3.74067  -3.73986  -3.73924
 Alpha  occ. eigenvalues --   -3.73921  -3.73901  -3.73896  -3.73782  -3.73749
 Alpha  occ. eigenvalues --   -3.46813  -3.46810  -3.46771  -3.46768  -3.46514
 Alpha  occ. eigenvalues --   -3.46510  -1.22950  -1.22927  -1.22902  -1.22884
 Alpha  occ. eigenvalues --   -1.22760  -1.22703  -1.22689  -1.22674  -1.22658
 Alpha  occ. eigenvalues --   -1.22623  -1.21382  -1.21362  -1.21239  -1.21238
 Alpha  occ. eigenvalues --   -1.21166  -1.08565  -1.08180  -1.08116  -1.08076
 Alpha  occ. eigenvalues --   -1.07995  -1.07839  -1.07807  -1.07768  -1.07663
 Alpha  occ. eigenvalues --   -1.07659  -1.07646  -1.07471  -1.07378  -1.07368
 Alpha  occ. eigenvalues --   -1.07323  -1.07255  -1.07220  -1.07167  -1.07110
 Alpha  occ. eigenvalues --   -1.06943  -1.03096  -1.03075  -1.03003  -1.02995
 Alpha  occ. eigenvalues --   -1.02911  -1.02822  -1.02774  -1.02739  -1.02713
 Alpha  occ. eigenvalues --   -1.02628  -0.66984  -0.60784  -0.60742  -0.55326
 Alpha  occ. eigenvalues --   -0.53610  -0.45635  -0.45196  -0.41392  -0.40526
 Alpha  occ. eigenvalues --   -0.29152  -0.27639  -0.25899  -0.25755  -0.25282
 Alpha  occ. eigenvalues --   -0.24218  -0.23292  -0.23270  -0.21624  -0.20891
 Alpha  occ. eigenvalues --   -0.20856
 Alpha virt. eigenvalues --   -0.07947  -0.07899  -0.06513  -0.06287  -0.05466
 Alpha virt. eigenvalues --   -0.05223  -0.05167  -0.04098  -0.04042  -0.04035
 Alpha virt. eigenvalues --   -0.03861  -0.02918  -0.01302   0.03529   0.05824
 Alpha virt. eigenvalues --    0.05909   0.06370   0.08264   0.08411   0.08743
 Alpha virt. eigenvalues --    0.09201   0.09740   0.10044   0.10085   0.10725
 Alpha virt. eigenvalues --    0.11259   0.11618   0.11715   0.12109   0.13263
 Alpha virt. eigenvalues --    0.13854   0.15620   0.16661   0.17093   0.17564
 Alpha virt. eigenvalues --    0.18564   0.18741   0.19579   0.19836   0.20076
 Alpha virt. eigenvalues --    0.20862   0.21190   0.21947   0.23180   0.23856
 Alpha virt. eigenvalues --    0.24895   0.24947   0.26181   0.26866   0.28350
 Alpha virt. eigenvalues --    0.29552   0.30111   0.30890   0.31075   0.31251
 Alpha virt. eigenvalues --    0.32123   0.32330   0.32773   0.33167   0.33954
 Alpha virt. eigenvalues --    0.34630   0.36059   0.36461   0.36651   0.38462
 Alpha virt. eigenvalues --    0.39216   0.40389   0.40481   0.41798   0.41947
 Alpha virt. eigenvalues --    0.42034   0.42812   0.43747   0.44229   0.44295
 Alpha virt. eigenvalues --    0.44530   0.45820   0.45901   0.47365   0.47398
 Alpha virt. eigenvalues --    0.48398   0.49418   0.49506   0.51048   0.52587
 Alpha virt. eigenvalues --    0.52618   0.53646   0.53885   0.54881   0.55234
 Alpha virt. eigenvalues --    0.57556   0.57583   0.58585   0.59682   0.59948
 Alpha virt. eigenvalues --    0.60464   0.60573   0.61053   0.61203   0.63061
 Alpha virt. eigenvalues --    0.64338   0.64402   0.65272   0.65712   0.66281
 Alpha virt. eigenvalues --    0.67434   0.67529   0.69224   0.69248   0.69509
 Alpha virt. eigenvalues --    0.69695   0.70411   0.71803   0.74258   0.74813
 Alpha virt. eigenvalues --    0.75026   0.75446   0.76782   0.76991   0.77711
 Alpha virt. eigenvalues --    0.79319   0.79397   0.80519   0.81603   0.82098
 Alpha virt. eigenvalues --    0.83382   0.83762   0.83933   0.84786   0.85360
 Alpha virt. eigenvalues --    0.86660   0.87582   0.88017   0.89174   0.89447
 Alpha virt. eigenvalues --    0.91344   0.92152   0.92727   0.93018   0.93783
 Alpha virt. eigenvalues --    0.93958   0.94002   0.95683   0.96401   0.97535
 Alpha virt. eigenvalues --    0.97924   0.98560   0.99778   1.00208   1.00829
 Alpha virt. eigenvalues --    1.01147   1.03962   1.05145   1.05782   1.07332
 Alpha virt. eigenvalues --    1.07484   1.09406   1.10452   1.10918   1.11202
 Alpha virt. eigenvalues --    1.12034   1.13988   1.16373   1.16463   1.17059
 Alpha virt. eigenvalues --    1.18837   1.19682   1.20039   1.20085   1.20120
 Alpha virt. eigenvalues --    1.20834   1.21240   1.22073   1.22184   1.22784
 Alpha virt. eigenvalues --    1.22888   1.23231   1.23686   1.24071   1.24934
 Alpha virt. eigenvalues --    1.25939   1.26112   1.27339   1.27386   1.27689
 Alpha virt. eigenvalues --    1.28709   1.28919   1.29462   1.29631   1.30405
 Alpha virt. eigenvalues --    1.30876   1.31751   1.32148   1.32400   1.33584
 Alpha virt. eigenvalues --    1.33924   1.36982   1.37581   1.38710   1.39149
 Alpha virt. eigenvalues --    1.39664   1.40541   1.41361   1.42213   1.42491
 Alpha virt. eigenvalues --    1.44984   1.45890   1.46401   1.47643   1.48587
 Alpha virt. eigenvalues --    1.48640   1.50851   1.51314   1.52086   1.52747
 Alpha virt. eigenvalues --    1.52992   1.55274   1.55372   1.58161   1.60447
 Alpha virt. eigenvalues --    1.66056   1.67546   1.72134   2.02336   2.05121
 Alpha virt. eigenvalues --    2.05826   2.08144   2.10412   2.12938   2.13889
 Alpha virt. eigenvalues --    2.15763   2.16594   2.18277   2.18620   2.19986
 Alpha virt. eigenvalues --    2.20826   2.22683   2.22950   2.24647   2.25122
 Alpha virt. eigenvalues --    2.25368   2.27559   2.28058   2.30800   2.30835
 Alpha virt. eigenvalues --    2.34738   2.38752   2.40212   2.40545   2.40599
 Alpha virt. eigenvalues --    2.41767   2.42227   2.45087   2.45519   2.45927
 Alpha virt. eigenvalues --    2.50142   2.51764   2.53506   2.54492   2.56343
 Alpha virt. eigenvalues --    2.57531   2.60925   2.62497   2.62689   2.65568
 Alpha virt. eigenvalues --    2.68658   2.69271   2.71138   2.73345   2.73899
 Alpha virt. eigenvalues --    2.76604   2.77396   2.78403   2.83838   2.84601
 Alpha virt. eigenvalues --    2.86759   2.89281   2.89708   2.91048   2.99054
 Alpha virt. eigenvalues --    3.22571   3.25941   3.27658   3.36383   3.37729
 Alpha virt. eigenvalues --    3.41177   3.93541   3.93548   3.99574   4.00133
 Alpha virt. eigenvalues --    4.03321   4.03399   4.07195   4.20104   4.22972
 Alpha virt. eigenvalues --    5.22793   5.35682   5.43218  35.33602  35.39514
 Alpha virt. eigenvalues --   35.40151  35.40390  35.44567  35.44777  35.48444
 Alpha virt. eigenvalues --   35.48975  35.53944  35.54239  35.55099  35.64244
 Alpha virt. eigenvalues --   35.82422  35.97443  35.98235  36.09522  36.19462
 Alpha virt. eigenvalues --   36.22936  36.94112  36.99339  37.02361  37.03039
 Alpha virt. eigenvalues --   37.09805  37.19929 113.57391 113.59719 120.20397
 Alpha virt. eigenvalues --  120.23935 120.24086 120.25620
          Condensed to atoms (all electrons):
               1          2          3          4          5          6
     1  Ge  31.512263   0.172302   0.074787   0.082766  -0.020413  -0.017827
     2  Ge   0.172302  31.558982   0.172604   0.167606   0.167901  -0.012414
     3  Ge   0.074787   0.172604  31.511815  -0.020372   0.082263  -0.017812
     4  Sn   0.082766   0.167606  -0.020372  21.356377   0.087813   0.131740
     5  Sn  -0.020413   0.167901   0.082263   0.087813  21.356265   0.132070
     6  Bi  -0.017827  -0.012414  -0.017812   0.131740   0.132070  22.429150
     7  Bi   0.131473  -0.016924  -0.018450   0.135679  -0.018089   0.197044
     8  Bi  -0.018452  -0.016927   0.131574  -0.018051   0.135612   0.197127
     9  Bi   0.138975  -0.022571   0.139348  -0.017475  -0.017472  -0.031324
               7          8          9
     1  Ge   0.131473  -0.018452   0.138975
     2  Ge  -0.016924  -0.016927  -0.022571
     3  Ge  -0.018450   0.131574   0.139348
     4  Sn   0.135679  -0.018051  -0.017475
     5  Sn  -0.018089   0.135612  -0.017472
     6  Bi   0.197044   0.197127  -0.031324
     7  Bi  22.399139  -0.031090   0.197791
     8  Bi  -0.031090  22.399115   0.197794
     9  Bi   0.197791   0.197794  22.359683
 Mulliken charges:
               1
     1  Ge  -0.055873
     2  Ge  -0.170558
     3  Ge  -0.055756
     4  Sn   0.093918
     5  Sn   0.094050
     6  Bi  -0.007755
     7  Bi   0.023427
     8  Bi   0.023297
     9  Bi   0.055251
 Sum of Mulliken charges =   0.00000
 Mulliken charges with hydrogens summed into heavy atoms:
               1
     1  Ge  -0.055873
     2  Ge  -0.170558
     3  Ge  -0.055756
     4  Sn   0.093918
     5  Sn   0.094050
     6  Bi  -0.007755
     7  Bi   0.023427
     8  Bi   0.023297
     9  Bi   0.055251
 Electronic spatial extent (au):  <R**2>=           6260.3589
 Charge=              0.0000 electrons
 Dipole moment (field-independent basis, Debye):
    X=              0.3965    Y=              0.0028    Z=             -2.2667  Tot=              2.3011
 Quadrupole moment (field-independent basis, Debye-Ang):
   XX=           -215.5609   YY=           -217.1765   ZZ=           -222.9381
   XY=             -0.0006   XZ=             -0.5156   YZ=             -0.0074
 Traceless Quadrupole moment (field-independent basis, Debye-Ang):
   XX=              2.9976   YY=              1.3820   ZZ=             -4.3796
   XY=             -0.0006   XZ=             -0.5156   YZ=             -0.0074
 Octapole moment (field-independent basis, Debye-Ang**2):
  XXX=             78.0375  YYY=              0.2639  ZZZ=           -183.5464  XYY=             25.1795
  XXY=              0.0952  XXZ=            -57.3336  XZZ=             22.8860  YZZ=              0.0738
  YYZ=            -60.7294  XYZ=             -0.0002
 Hexadecapole moment (field-independent basis, Debye-Ang**3):
 XXXX=          -3330.0317 YYYY=          -3269.4227 ZZZZ=          -3179.7653 XXXY=              0.1888
 XXXZ=             37.2072 YYYX=             -0.2161 YYYZ=             -0.0011 ZZZX=             81.5454
 ZZZY=              0.1966 XXYY=          -1111.9709 XXZZ=          -1088.0435 YYZZ=          -1055.3573
 XXYZ=              0.1149 YYXZ=              1.5852 ZZXY=             -0.0725
 N-N= 3.575076590343D+03 E-N=-2.474154250507D+04  KE= 6.661946303668D+03
 No NMR shielding tensors so no spin-rotation constants.
 Leave Link  601 at Tue Mar  6 12:12:50 2018, MaxMem=   536870912 cpu:         2.4
 (Enter /share/apps//mg09/l701.exe)
 Compute integral first derivatives.
 ... and contract with generalized density number  0.
   1 Symmetry operations used in ECPInt.
 ECPInt:  NShTT=   10440 NPrTT=   41973 LenC2=    9685 LenP2D=   27395.
 LDataN:  DoStor=T MaxTD1= 9 Len=  602
 Leave Link  701 at Tue Mar  6 12:13:10 2018, MaxMem=   536870912 cpu:        81.8
 (Enter /share/apps//mg09/l702.exe)
 L702 exits ... SP integral derivatives will be done elsewhere.
 Leave Link  702 at Tue Mar  6 12:13:10 2018, MaxMem=   536870912 cpu:         0.1
 (Enter /share/apps//mg09/l703.exe)
 Compute integral first derivatives, UseDBF=F ICtDFT=           0.
 Integral derivatives from FoFJK, PRISM(SPDF).
 Calling FoFJK, ICntrl=      2127 FMM=F ISym2X=0 I1Cent= 0 IOpClX= 0 NMat=1 NMatS=1 NMatT=0.
 FoFJK:  IHMeth= 1 ICntrl=    2127 DoSepK=F KAlg= 0 I1Cent=   0 FoldK=F
 IRaf=         0 NMat=   1 IRICut=       1 DoRegI=T DoRafI=F ISym2E= 0.
 FoFCou: FMM=F IPFlag=           0 FMFlag=      100000 FMFlg1=         800
         NFxFlg=           0 DoJE=F BraDBF=F KetDBF=F FulRan=T
         wScrn=  0.000000 ICntrl=    2127 IOpCl=  0 I1Cent=           0 NGrid=           0
         NMat0=    1 NMatS0=      1 NMatT0=    0 NMatD0=    1 NMtDS0=    0 NMtDT0=    0
 Symmetry not used in FoFCou.
 Defaulting to unpruned grid for atomic number  50.
 Defaulting to unpruned grid for atomic number  50.
 Defaulting to unpruned grid for atomic number  50.
 Defaulting to unpruned grid for atomic number  50.
 Leave Link  703 at Tue Mar  6 12:17:22 2018, MaxMem=   536870912 cpu:       993.2
 (Enter /share/apps//mg09/l716.exe)
 Dipole        = 1.55975951D-01 1.10719471D-03-8.91789774D-01
 ***** Axes restored to original set *****
 -------------------------------------------------------------------
 Center     Atomic                   Forces (Hartrees/Bohr)
 Number     Number              X              Y              Z
 -------------------------------------------------------------------
      1       32          -0.009355430   -0.011740738   -0.005472420
      2       32           0.009232178    0.000092017   -0.016509470
      3       32          -0.009561406    0.011645627   -0.005503457
      4       50           0.010279565   -0.010121323    0.002431422
      5       50           0.010249066    0.010104124    0.002475118
      6       83           0.002612085    0.000049640    0.006854831
      7       83          -0.002510406   -0.005418766    0.005659615
      8       83          -0.002600358    0.005394486    0.005647338
      9       83          -0.008345295   -0.000005066    0.004417023
 -------------------------------------------------------------------
 Cartesian Forces:  Max     0.016509470 RMS     0.007640425
 Force constants in Cartesian coordinates: 
                1             2             3             4             5 
      1  0.172754D+00
      2  0.265893D-01  0.182864D+00
      3  0.554163D-02  0.324305D-01  0.206782D+00
      4 -0.517415D-01 -0.145251D-01  0.261776D-01  0.147989D+00
      5 -0.282297D-01 -0.431885D-01  0.189677D-01  0.665300D-04  0.136051D+00
      6 -0.606622D-02 -0.120016D-01 -0.424392D-01 -0.260671D-01 -0.143904D-03
      7 -0.221237D-01 -0.123097D-01 -0.786721D-02 -0.521753D-01  0.281515D-01
      8  0.125539D-01 -0.478242D-01  0.142869D-01  0.144185D-01 -0.427946D-01
      9 -0.773316D-02 -0.143493D-01 -0.294131D-01  0.263772D-01 -0.186992D-01
     10 -0.403211D-01  0.184705D-01 -0.728057D-03 -0.303245D-01  0.648855D-02
     11 -0.126672D-01 -0.251053D-01 -0.138715D-01  0.191436D-01 -0.363176D-01
     12 -0.171351D-01 -0.320221D-03 -0.230723D-01 -0.203457D-01  0.289136D-01
     13 -0.257353D-03 -0.949778D-02 -0.564364D-02 -0.301495D-01 -0.645782D-02
     14 -0.782511D-02 -0.143047D-02 -0.643719D-02 -0.190735D-01 -0.365485D-01
     15  0.487549D-03 -0.439514D-03  0.546212D-02 -0.201462D-01 -0.290796D-01
     16  0.239544D-02 -0.397727D-02 -0.571061D-02  0.340938D-02 -0.145893D-04
     17  0.150035D-02  0.326026D-02  0.789675D-03 -0.137067D-04  0.847649D-02
     18 -0.408911D-02 -0.696645D-02 -0.230132D-02  0.280587D-02  0.111300D-04
     19 -0.245631D-01 -0.219503D-02 -0.166347D-01  0.757055D-02 -0.978786D-04
     20 -0.105937D-01 -0.268715D-01 -0.105649D-01 -0.262104D-02  0.157548D-02
     21 -0.315683D-04  0.243156D-01 -0.690639D-01  0.478007D-02  0.593250D-03
     22  0.497935D-02  0.335129D-02  0.127411D-02  0.755003D-02  0.156706D-03
     23 -0.356209D-02 -0.170941D-02 -0.867852D-02  0.267062D-02  0.159350D-02
     24 -0.356513D-02 -0.329563D-02  0.118942D-02  0.478894D-02 -0.564070D-03
     25 -0.411225D-01 -0.590609D-02  0.359088D-02 -0.212862D-02 -0.632828D-04
     26  0.222343D-01 -0.399952D-01 -0.269227D-01 -0.658628D-04  0.111528D-01
     27  0.325911D-01 -0.193733D-01 -0.471437D-01  0.162930D-02  0.114539D-05
                6             7             8             9            10 
      6  0.191540D+00
      7 -0.618400D-02  0.173149D+00
      8  0.119639D-01 -0.266752D-01  0.182296D+00
      9 -0.424540D-01  0.575854D-02 -0.324376D-01  0.206803D+00
     10  0.118939D-01 -0.397546D-03  0.950827D-02 -0.570214D-02  0.171493D+00
     11  0.577321D-03  0.783772D-02 -0.127425D-02  0.638114D-02 -0.445653D-01
     12 -0.486409D-01  0.478699D-03  0.438152D-03  0.545778D-02 -0.126783D-01
     13  0.118826D-01 -0.400748D-01 -0.185646D-01 -0.819019D-03 -0.262553D-01
     14 -0.466248D-03  0.125048D-01 -0.250577D-01  0.138600D-01 -0.186273D-01
     15 -0.487253D-01 -0.170813D-01  0.199294D-03 -0.229713D-01  0.301312D-02
     16 -0.449334D-02  0.237462D-02  0.396293D-02 -0.570479D-02 -0.219724D-01
     17 -0.198629D-04 -0.151389D-02  0.328568D-02 -0.838704D-03  0.517859D-02
     18 -0.606669D-02 -0.414614D-02  0.692557D-02 -0.230448D-02 -0.997435D-02
     19  0.529514D-02  0.497863D-02 -0.329081D-02  0.118905D-02 -0.489333D-01
     20  0.724471D-02  0.361304D-02 -0.169496D-02  0.869308D-02  0.168098D-01
     21 -0.167665D-02 -0.360103D-02  0.326789D-02  0.118305D-02  0.929609D-02
     22  0.536319D-02 -0.247012D-01  0.219453D-02 -0.167404D-01  0.105790D-02
     23 -0.718724D-02  0.106264D-01 -0.267599D-01  0.103828D-01  0.798385D-02
     24 -0.167806D-02  0.149157D-03 -0.243607D-01 -0.690287D-01  0.398868D-02
     25  0.837572D-02 -0.410294D-01  0.589246D-02  0.337474D-02 -0.434723D-02
     26  0.329554D-04 -0.222346D-01 -0.401762D-01  0.270078D-01 -0.124690D-02
     27  0.141228D-03  0.324933D-01  0.197165D-01 -0.472721D-01  0.890995D-03
               11            12            13            14            15 
     11  0.156645D+00
     12 -0.378973D-03  0.142260D+00
     13  0.187346D-01  0.301162D-02  0.170623D+00
     14 -0.400499D-01  0.840329D-03  0.446937D-01  0.157365D+00
     15 -0.820542D-03 -0.118063D-01 -0.126867D-01  0.233082D-03  0.142344D+00
     16  0.177315D-01  0.177029D-01 -0.218376D-01 -0.176689D-01  0.175518D-01
     17 -0.310883D-01 -0.253176D-01 -0.513620D-02 -0.313417D-01  0.255026D-01
     18 -0.236542D-02 -0.445257D-01 -0.997837D-02  0.230980D-02 -0.446835D-01
     19 -0.143630D-01  0.265781D-01  0.112156D-02 -0.355377D-03 -0.490243D-03
     20 -0.243910D-01 -0.109065D-02 -0.795659D-02 -0.159428D-02  0.250363D-02
     21  0.160466D-01 -0.300541D-01  0.395608D-02  0.423875D-02  0.424428D-02
     22  0.374855D-03 -0.471261D-03 -0.488784D-01  0.141879D-01  0.264957D-01
     23 -0.153050D-02 -0.249605D-02 -0.170007D-01 -0.244000D-01  0.128379D-02
     24 -0.419575D-02  0.423985D-02  0.940208D-02 -0.159607D-01 -0.299938D-01
     25  0.777328D-02  0.285902D-02 -0.429116D-02 -0.783615D-02  0.285626D-02
     26  0.311128D-02 -0.588614D-03  0.118536D-02  0.305793D-02  0.617297D-03
     27 -0.137284D-02  0.614203D-02  0.875287D-03  0.138215D-02  0.612939D-02
               16            17            18            19            20 
     16  0.105582D+00
     17 -0.108055D-04  0.117283D+00
     18  0.261870D-01  0.769743D-04  0.154179D+00
     19 -0.317126D-01 -0.203067D-01  0.101867D-02  0.125172D+00
     20 -0.137215D-01 -0.388756D-01  0.111924D-01  0.138971D-01  0.138529D+00
     21 -0.210615D-01 -0.163472D-01 -0.266067D-01 -0.362579D-02 -0.366544D-01
     22 -0.320049D-01  0.203648D-01  0.108419D-02  0.625982D-02  0.688348D-05
     23  0.137602D-01 -0.385829D-01 -0.111679D-01  0.117745D-03 -0.768762D-02
     24 -0.212282D-01  0.161722D-01 -0.266072D-01  0.277586D-02  0.192930D-03
     25 -0.623415D-02 -0.624243D-04 -0.290776D-02 -0.398940D-01  0.566135D-03
     26 -0.614980D-04  0.758290D-02 -0.160607D-04  0.265940D-01 -0.389898D-01
     27 -0.324327D-02 -0.181363D-04 -0.108329D-02 -0.161061D-01  0.184832D-01
               21            22            23            24            25 
     21  0.139489D+00
     22  0.277748D-02  0.125414D+00
     23 -0.160534D-03 -0.140149D-01  0.138352D+00
     24  0.165483D-02 -0.385364D-02  0.366321D-01  0.139363D+00
     25  0.751011D-02 -0.396769D-01 -0.581128D-03  0.754225D-02  0.178724D+00
     26  0.470010D-02 -0.266220D-01 -0.392749D-01 -0.462044D-02  0.217195D-03
     27 -0.191701D-01 -0.159294D-01 -0.186083D-01 -0.191398D-01 -0.332012D-01
               26            27 
     26  0.133531D+00
     27 -0.210360D-03  0.121396D+00
 Leave Link  716 at Tue Mar  6 12:17:22 2018, MaxMem=   536870912 cpu:         0.1
 (Enter /share/apps//mg09/l103.exe)

 GradGradGradGradGradGradGradGradGradGradGradGradGradGradGradGradGradGrad
 Berny optimization.
 Search for a local minimum.
 Step number   1 out of a maximum of  100
 All quantities printed in internal units (Hartrees-Bohrs-Radians)
 Second derivative matrix not updated -- first step.
 ITU=  0
     Eigenvalues ---    0.07794   0.12201   0.12332   0.12846   0.12896
     Eigenvalues ---    0.13174   0.14350   0.15629   0.16084   0.16232
     Eigenvalues ---    0.17976   0.21884   0.22046   0.22398   0.24401
     Eigenvalues ---    0.25008   0.27162   0.28579   0.28605   0.30551
     Eigenvalues ---    0.32296
 RFO step:  Lambda=-9.29693898D-03 EMin= 7.79368735D-02
 Linear search not attempted -- first point.
 TrRot= -0.001144 -0.000001 -0.003035 -0.004058 -0.000133  0.004055
 Variable       Old X    -DE/DX   Delta X   Delta X   Delta X     New X
                                 (Linear)    (Quad)   (Total)
    X1        1.73377  -0.00936   0.00000  -0.04811  -0.04973   1.68404
    Y1        2.85736  -0.01174   0.00000  -0.05991  -0.05991   2.79744
    Z1        3.72531  -0.00547   0.00000  -0.03033  -0.03315   3.69216
    X2       -2.05365   0.00923   0.00000   0.04856   0.04669  -2.00695
    Y2       -0.00964   0.00009   0.00000   0.00051   0.00051  -0.00913
    Z2        5.57494  -0.01651   0.00000  -0.08987  -0.09317   5.48178
    X3        1.76244  -0.00956   0.00000  -0.04916  -0.05080   1.71164
    Y3       -2.83920   0.01165   0.00000   0.05941   0.05940  -2.77980
    Z3        3.72753  -0.00550   0.00000  -0.03043  -0.03324   3.69429
    X4       -3.79965   0.01028   0.00000   0.06297   0.06165  -3.73800
    Y4        3.12515  -0.01012   0.00000  -0.06262  -0.06260   3.06254
    Z4        1.44652   0.00243   0.00000   0.01235   0.00882   1.45533
    X5       -3.77565   0.01025   0.00000   0.06287   0.06152  -3.71413
    Y5       -3.15376   0.01010   0.00000   0.06245   0.06246  -3.09130
    Z5        1.44560   0.00248   0.00000   0.01267   0.00915   1.45474
    X6       -2.69738   0.00261   0.00000   0.02972   0.02903  -2.66836
    Y6       -0.01349   0.00005   0.00000   0.00034   0.00034  -0.01315
    Z6       -3.42122   0.00685   0.00000   0.05579   0.05240  -3.36882
    X7        0.99083  -0.00251   0.00000  -0.01703  -0.01794   0.97288
    Y7        4.07582  -0.00542   0.00000  -0.04805  -0.04805   4.02777
    Z7       -1.69197   0.00566   0.00000   0.03830   0.03539  -1.65658
    X8        1.02678  -0.00260   0.00000  -0.01781  -0.01874   1.00803
    Y8       -4.06849   0.00539   0.00000   0.04801   0.04800  -4.02049
    Z8       -1.68847   0.00565   0.00000   0.03811   0.03521  -1.65326
    X9        4.68704  -0.00835   0.00000  -0.06051  -0.06166   4.62538
    Y9        0.02012  -0.00001   0.00000  -0.00014  -0.00016   0.01996
    Z9        0.03667   0.00442   0.00000   0.02100   0.01858   0.05525
         Item               Value     Threshold  Converged?
 Maximum Force            0.016509     0.000450     NO 
 RMS     Force            0.007640     0.000300     NO 
 Maximum Displacement     0.093166     0.001800     NO 
 RMS     Displacement     0.045672     0.001200     NO 
 Predicted change in Energy=-4.910699D-03
 Lowest energy point so far.  Saving SCF results.
 GradGradGradGradGradGradGradGradGradGradGradGradGradGradGradGradGradGrad

 Leave Link  103 at Tue Mar  6 12:17:23 2018, MaxMem=   536870912 cpu:         0.2
 (Enter /share/apps//mg09/l202.exe)
                          Input orientation:                          
 ---------------------------------------------------------------------
 Center     Atomic      Atomic             Coordinates (Angstroms)
 Number     Number       Type             X           Y           Z
 ---------------------------------------------------------------------
      1         32           0        0.891157    1.480343    1.953807
      2         32           0       -1.062035   -0.004830    2.900832
      3         32           0        0.905759   -1.471004    1.954934
      4         50           0       -1.978065    1.620627    0.770130
      5         50           0       -1.965431   -1.635844    0.769817
      6         83           0       -1.412033   -0.006959   -1.782701
      7         83           0        0.514828    2.131402   -0.876625
      8         83           0        0.533428   -2.127550   -0.874865
      9         83           0        2.447643    0.010563    0.029235
 ---------------------------------------------------------------------
                    Distance matrix (angstroms):
                    1          2          3          4          5
     1  Ge   0.000000
     2  Ge   2.630124   0.000000
     3  Ge   2.951383   2.629943   0.000000
     4  Sn   3.106961   2.832157   4.390716   0.000000
     5  Sn   4.390051   2.831529   3.110531   3.256496   0.000000
     6  Bi   4.634462   4.696593   4.635246   3.079996   3.078127
     7  Bi   2.928625   4.617268   4.598683   3.031040   4.801521
     8  Bi   4.598504   4.615986   2.928728   4.802337   3.031674
     9  Bi   2.878694   4.534770   2.877632   4.767402   4.768054
                    6          7          8          9
     6  Bi   0.000000
     7  Bi   3.017673   0.000000
     8  Bi   3.017597   4.258993   0.000000
     9  Bi   4.263862   3.009039   3.008844   0.000000
 Stoichiometry    Bi4Ge3Sn2
 Framework group  C1[X(Bi4Ge3Sn2)]
 Deg. of freedom    21
 Full point group                 C1      NOp   1
 RotChk:  IX=0 Diff= 5.10D-03
 Largest Abelian subgroup         C1      NOp   1
 Largest concise Abelian subgroup C1      NOp   1
                         Standard orientation:                         
 ---------------------------------------------------------------------
 Center     Atomic      Atomic             Coordinates (Angstroms)
 Number     Number       Type             X           Y           Z
 ---------------------------------------------------------------------
      1         32           0        0.901271    1.478367    1.943690
      2         32           0       -1.052114   -0.002903    2.896411
      3         32           0        0.909871   -1.473004    1.944561
      4         50           0       -1.971166    1.624582    0.768560
      5         50           0       -1.965159   -1.631909    0.767975
      6         83           0       -1.416039   -0.003953   -1.786060
      7         83           0        0.517854    2.130412   -0.885563
      8         83           0        0.527793   -2.128569   -0.884166
      9         83           0        2.449035    0.005574    0.014393
 ---------------------------------------------------------------------
 Rotational constants (GHZ):      0.0981100      0.0969611      0.0879538
 Leave Link  202 at Tue Mar  6 12:17:26 2018, MaxMem=   536870912 cpu:         0.0
 (Enter /share/apps//mg09/l301.exe)
 Standard basis: def2TZVP (5D, 7F)
 Ernie: Thresh=  0.10000D-02 Tol=  0.10000D-05 Strict=F.
 There are   519 symmetry adapted cartesian basis functions of A   symmetry.
 There are   444 symmetry adapted basis functions of A   symmetry.
   444 basis functions,   963 primitive gaussians,   519 cartesian basis functions
   116 alpha electrons      116 beta electrons
       nuclear repulsion energy      3635.8309189133 Hartrees.
 IExCor= 1009 DFT=T Ex+Corr=PBE1PBE ExCW=0 ScaHFX=  0.250000
 ScaDFX=  0.750000  0.750000  1.000000  1.000000 ScalE2=  1.000000  1.000000
 IRadAn=      0 IRanWt=     -1 IRanGd=            0 ICorTp=0 IEmpDi=  4
 NAtoms=    9 NActive=    9 NUniq=    9 SFac= 1.00D+00 NAtFMM=   60 NAOKFM=F Big=F
 Integral buffers will be    131072 words long.
 Raffenetti 2 integral format.
 Two-electron integral symmetry is turned on.
 Leave Link  301 at Tue Mar  6 12:17:26 2018, MaxMem=   536870912 cpu:         0.1
 (Enter /share/apps//mg09/l302.exe)
 NPDir=0 NMtPBC=     1 NCelOv=     1 NCel=       1 NClECP=     1 NCelD=      1
         NCelK=      1 NCelE2=     1 NClLst=     1 CellRange=     0.0.
 One-electron integrals computed using PRISM.
   1 Symmetry operations used in ECPInt.
 ECPInt:  NShTT=   10440 NPrTT=   41973 LenC2=    9720 LenP2D=   27607.
 LDataN:  DoStor=T MaxTD1= 8 Len=  415
 NBasis=   444 RedAO= T EigKep=  1.31D-03  NBF=   444
 NBsUse=   444 1.00D-06 EigRej= -1.00D+00 NBFU=   444
 Precomputing XC quadrature grid using
 IXCGrd= 4 IRadAn=           0 IRanWt=          -1 IRanGd=           0 AccXCQ= 0.00D+00.
 Defaulting to unpruned grid for atomic number  83.
 Defaulting to unpruned grid for atomic number  50.
 Generated NRdTot=       0 NPtTot=           0 NUsed=           0 NTot=          32
 NSgBfM=   501   501   501   501   501 MxSgAt=     9 MxSgA2=     9.
 Leave Link  302 at Tue Mar  6 12:17:36 2018, MaxMem=   536870912 cpu:        35.7
 (Enter /share/apps//mg09/l303.exe)
 DipDrv:  MaxL=1.
 Leave Link  303 at Tue Mar  6 12:17:36 2018, MaxMem=   536870912 cpu:         0.3
 (Enter /share/apps//mg09/l401.exe)
 Initial guess from the checkpoint file:  "Isomer_02.chk"
 B after Tr=     0.000000    0.000000    0.000000
         Rot=    0.999998   -0.000042   -0.001586    0.001021 Ang=  -0.22 deg.
 Guess basis will be translated and rotated to current coordinates.
 JPrj=2 DoOrth=T DoCkMO=T.
 Generating alternative initial guess.
 ExpMin= 4.62D-02 ExpMax= 4.66D+05 ExpMxC= 4.50D+03 IAcc=2 IRadAn=         4 AccDes= 0.00D+00
 Harris functional with IExCor= 1009 and IRadAn=       4 diagonalized for initial guess.
 HarFok:  IExCor= 1009 AccDes= 0.00D+00 IRadAn=         4 IDoV= 1 UseB2=F ITyADJ=14
 ICtDFT=  3500011 ScaDFX=  1.000000  1.000000  1.000000  1.000000
 Defaulting to unpruned grid for atomic number  50.
 Defaulting to unpruned grid for atomic number  50.
 Defaulting to unpruned grid for atomic number  50.
 Defaulting to unpruned grid for atomic number  50.
 FoFCou: FMM=F IPFlag=           0 FMFlag=      100000 FMFlg1=           0
         NFxFlg=           0 DoJE=T BraDBF=F KetDBF=T FulRan=T
         wScrn=  0.000000 ICntrl=     500 IOpCl=  0 I1Cent=   200000004 NGrid=           0
         NMat0=    1 NMatS0=      1 NMatT0=    0 NMatD0=    1 NMtDS0=    0 NMtDT0=    0
 Petite list used in FoFCou.
 Harris En= -7518.64458081281    
 Leave Link  401 at Tue Mar  6 12:17:40 2018, MaxMem=   536870912 cpu:        13.6
 (Enter /share/apps//mg09/l502.exe)
 Closed shell SCF:
 Using DIIS extrapolation, IDIIS=  1040.
 Integral symmetry usage will be decided dynamically.
 IVT=     1410107 IEndB=     1410107 NGot=   536870912 MDV=   536322046
 LenX=   536322046 LenY=   536052166
 Requested convergence on RMS density matrix=1.00D-08 within 768 cycles.
 Requested convergence on MAX density matrix=1.00D-06.
 Requested convergence on             energy=1.00D-06.
 No special actions if energy rises.
 Fock matrices will be formed incrementally for  20 cycles.

 Cycle   1  Pass 1  IDiag  1:
 FoFJK:  IHMeth= 1 ICntrl=       0 DoSepK=F KAlg= 0 I1Cent=   0 FoldK=F
 IRaf= 880000000 NMat=   1 IRICut=       1 DoRegI=T DoRafI=F ISym2E= 0.
 FoFCou: FMM=F IPFlag=           0 FMFlag=      100000 FMFlg1=           0
         NFxFlg=           0 DoJE=F BraDBF=F KetDBF=F FulRan=T
         wScrn=  0.000000 ICntrl=       0 IOpCl=  0 I1Cent=           0 NGrid=           0
         NMat0=    1 NMatS0=      1 NMatT0=    0 NMatD0=    1 NMtDS0=    0 NMtDT0=    0
 Symmetry not used in FoFCou.
 Defaulting to unpruned grid for atomic number  50.
 Defaulting to unpruned grid for atomic number  50.
 Defaulting to unpruned grid for atomic number  50.
 Defaulting to unpruned grid for atomic number  50.
 E= -7517.83075000702    
 DIIS: error= 6.10D-03 at cycle   1 NSaved=   1.
 NSaved= 1 IEnMin= 1 EnMin= -7517.83075000702     IErMin= 1 ErrMin= 6.10D-03
 ErrMax= 6.10D-03  0.00D+00 EMaxC= 1.00D-01 BMatC= 8.58D-03 BMatP= 8.58D-03
 IDIUse=3 WtCom= 9.39D-01 WtEn= 6.10D-02
 Coeff-Com:  0.100D+01
 Coeff-En:   0.100D+01
 Coeff:      0.100D+01
 Gap=     7.071 Goal=   None    Shift=    0.000
 GapD=    7.071 DampG=2.000 DampE=1.000 DampFc=2.0000 IDamp=-1.
 RMSDP=1.86D-04 MaxDP=4.18D-03              OVMax= 2.15D-02

 Cycle   2  Pass 1  IDiag  1:
 RMSU=  1.86D-04    CP:  1.00D+00
 E= -7517.83064885996     Delta-E=        0.000101147059 Rises=F Damp=F
 DIIS: error= 1.70D-03 at cycle   2 NSaved=   2.
 NSaved= 2 IEnMin= 1 EnMin= -7517.83075000702     IErMin= 2 ErrMin= 1.70D-03
 ErrMax= 1.70D-03  0.00D+00 EMaxC= 1.00D-01 BMatC= 1.82D-03 BMatP= 8.58D-03
 IDIUse=3 WtCom= 9.83D-01 WtEn= 1.70D-02
 Coeff-Com:  0.215D+00 0.785D+00
 Coeff-En:   0.523D+00 0.477D+00
 Coeff:      0.220D+00 0.780D+00
 Gap=     0.130 Goal=   None    Shift=    0.000
 RMSDP=2.43D-04 MaxDP=9.83D-03 DE= 1.01D-04 OVMax= 2.10D-02

 Cycle   3  Pass 1  IDiag  1:
 RMSU=  2.27D-04    CP:  9.99D-01  5.42D-01
 E= -7517.82738848873     Delta-E=        0.003260371232 Rises=F Damp=F
 DIIS: error= 2.36D-03 at cycle   3 NSaved=   3.
 NSaved= 3 IEnMin= 1 EnMin= -7517.83075000702     IErMin= 2 ErrMin= 1.70D-03
 ErrMax= 2.36D-03  0.00D+00 EMaxC= 1.00D-01 BMatC= 4.86D-03 BMatP= 1.82D-03
 IDIUse=3 WtCom= 1.71D-01 WtEn= 8.29D-01
 Coeff-Com:  0.155D-01 0.616D+00 0.369D+00
 Coeff-En:   0.000D+00 0.693D+00 0.307D+00
 Coeff:      0.264D-02 0.680D+00 0.317D+00
 Gap=     0.133 Goal=   None    Shift=    0.000
 RMSDP=1.49D-04 MaxDP=4.72D-03 DE= 3.26D-03 OVMax= 1.65D-02

 Cycle   4  Pass 1  IDiag  1:
 RMSU=  6.53D-05    CP:  9.99D-01  7.81D-01  4.46D-01
 E= -7517.83188425935     Delta-E=       -0.004495770625 Rises=F Damp=F
 DIIS: error= 8.39D-04 at cycle   4 NSaved=   4.
 NSaved= 4 IEnMin= 4 EnMin= -7517.83188425935     IErMin= 4 ErrMin= 8.39D-04
 ErrMax= 8.39D-04  0.00D+00 EMaxC= 1.00D-01 BMatC= 4.42D-04 BMatP= 1.82D-03
 IDIUse=3 WtCom= 9.92D-01 WtEn= 8.39D-03
 Coeff-Com:  0.443D-03 0.453D+00 0.223D+00 0.324D+00
 Coeff-En:   0.000D+00 0.162D+00 0.000D+00 0.838D+00
 Coeff:      0.440D-03 0.450D+00 0.221D+00 0.328D+00
 Gap=     0.133 Goal=   None    Shift=    0.000
 RMSDP=5.20D-05 MaxDP=2.24D-03 DE=-4.50D-03 OVMax= 5.25D-03

 Cycle   5  Pass 1  IDiag  1:
 RMSU=  1.48D-05    CP:  9.99D-01  8.58D-01  4.17D-01  2.86D-01
 E= -7517.83224871207     Delta-E=       -0.000364452715 Rises=F Damp=F
 DIIS: error= 1.39D-04 at cycle   5 NSaved=   5.
 NSaved= 5 IEnMin= 5 EnMin= -7517.83224871207     IErMin= 5 ErrMin= 1.39D-04
 ErrMax= 1.39D-04  0.00D+00 EMaxC= 1.00D-01 BMatC= 1.57D-05 BMatP= 4.42D-04
 IDIUse=3 WtCom= 9.99D-01 WtEn= 1.39D-03
 Coeff-Com: -0.112D-02 0.223D+00 0.101D+00 0.212D+00 0.465D+00
 Coeff-En:   0.000D+00 0.000D+00 0.000D+00 0.000D+00 0.100D+01
 Coeff:     -0.111D-02 0.223D+00 0.101D+00 0.212D+00 0.465D+00
 Gap=     0.133 Goal=   None    Shift=    0.000
 RMSDP=1.00D-05 MaxDP=5.38D-04 DE=-3.64D-04 OVMax= 1.03D-03

 Cycle   6  Pass 1  IDiag  1:
 RMSU=  3.70D-06    CP:  9.99D-01  8.67D-01  4.05D-01  3.85D-01  6.36D-01
 E= -7517.83226333000     Delta-E=       -0.000014617934 Rises=F Damp=F
 DIIS: error= 1.39D-05 at cycle   6 NSaved=   6.
 NSaved= 6 IEnMin= 6 EnMin= -7517.83226333000     IErMin= 6 ErrMin= 1.39D-05
 ErrMax= 1.39D-05  0.00D+00 EMaxC= 1.00D-01 BMatC= 3.26D-07 BMatP= 1.57D-05
 IDIUse=1 WtCom= 1.00D+00 WtEn= 0.00D+00
 Coeff-Com: -0.415D-03 0.563D-01 0.272D-01 0.583D-01 0.177D+00 0.682D+00
 Coeff:     -0.415D-03 0.563D-01 0.272D-01 0.583D-01 0.177D+00 0.682D+00
 Gap=     0.133 Goal=   None    Shift=    0.000
 RMSDP=2.48D-06 MaxDP=1.61D-04 DE=-1.46D-05 OVMax= 3.24D-04

 Cycle   7  Pass 1  IDiag  1:
 RMSU=  1.79D-06    CP:  9.99D-01  8.70D-01  4.11D-01  3.79D-01  6.95D-01
                    CP:  9.65D-01
 E= -7517.83226355266     Delta-E=       -0.000000222659 Rises=F Damp=F
 DIIS: error= 1.11D-05 at cycle   7 NSaved=   7.
 NSaved= 7 IEnMin= 7 EnMin= -7517.83226355266     IErMin= 7 ErrMin= 1.11D-05
 ErrMax= 1.11D-05  0.00D+00 EMaxC= 1.00D-01 BMatC= 1.64D-07 BMatP= 3.26D-07
 IDIUse=1 WtCom= 1.00D+00 WtEn= 0.00D+00
 Coeff-Com: -0.803D-04-0.410D-02-0.360D-03 0.142D-02 0.344D-01 0.473D+00
 Coeff-Com:  0.496D+00
 Coeff:     -0.803D-04-0.410D-02-0.360D-03 0.142D-02 0.344D-01 0.473D+00
 Coeff:      0.496D+00
 Gap=     0.133 Goal=   None    Shift=    0.000
 RMSDP=1.52D-06 MaxDP=6.67D-05 DE=-2.23D-07 OVMax= 1.65D-04

 Cycle   8  Pass 1  IDiag  1:
 RMSU=  9.67D-07    CP:  9.99D-01  8.70D-01  4.12D-01  3.82D-01  7.05D-01
                    CP:  1.11D+00  4.62D-01
 E= -7517.83226365356     Delta-E=       -0.000000100899 Rises=F Damp=F
 DIIS: error= 1.08D-05 at cycle   8 NSaved=   8.
 NSaved= 8 IEnMin= 8 EnMin= -7517.83226365356     IErMin= 8 ErrMin= 1.08D-05
 ErrMax= 1.08D-05  0.00D+00 EMaxC= 1.00D-01 BMatC= 6.26D-08 BMatP= 1.64D-07
 IDIUse=1 WtCom= 1.00D+00 WtEn= 0.00D+00
 Coeff-Com:  0.151D-05-0.125D-01-0.472D-02-0.778D-02-0.842D-03 0.274D+00
 Coeff-Com:  0.408D+00 0.344D+00
 Coeff:      0.151D-05-0.125D-01-0.472D-02-0.778D-02-0.842D-03 0.274D+00
 Coeff:      0.408D+00 0.344D+00
 Gap=     0.133 Goal=   None    Shift=    0.000
 RMSDP=7.83D-07 MaxDP=3.10D-05 DE=-1.01D-07 OVMax= 8.66D-05

 Cycle   9  Pass 1  IDiag  1:
 RMSU=  2.74D-07    CP:  9.99D-01  8.71D-01  4.12D-01  3.84D-01  7.08D-01
                    CP:  1.12D+00  6.54D-01  3.46D-01
 E= -7517.83226373507     Delta-E=       -0.000000081507 Rises=F Damp=F
 DIIS: error= 1.77D-06 at cycle   9 NSaved=   9.
 NSaved= 9 IEnMin= 9 EnMin= -7517.83226373507     IErMin= 9 ErrMin= 1.77D-06
 ErrMax= 1.77D-06  0.00D+00 EMaxC= 1.00D-01 BMatC= 3.96D-09 BMatP= 6.26D-08
 IDIUse=1 WtCom= 1.00D+00 WtEn= 0.00D+00
 Coeff-Com:  0.179D-04-0.818D-02-0.330D-02-0.576D-02-0.816D-02 0.101D+00
 Coeff-Com:  0.192D+00 0.231D+00 0.501D+00
 Coeff:      0.179D-04-0.818D-02-0.330D-02-0.576D-02-0.816D-02 0.101D+00
 Coeff:      0.192D+00 0.231D+00 0.501D+00
 Gap=     0.133 Goal=   None    Shift=    0.000
 RMSDP=1.67D-07 MaxDP=1.10D-05 DE=-8.15D-08 OVMax= 1.85D-05

 Cycle  10  Pass 1  IDiag  1:
 RMSU=  8.49D-08    CP:  9.99D-01  8.71D-01  4.12D-01  3.84D-01  7.13D-01
                    CP:  1.12D+00  6.49D-01  4.37D-01  7.62D-01
 E= -7517.83226373917     Delta-E=       -0.000000004102 Rises=F Damp=F
 DIIS: error= 1.96D-07 at cycle  10 NSaved=  10.
 NSaved=10 IEnMin=10 EnMin= -7517.83226373917     IErMin=10 ErrMin= 1.96D-07
 ErrMax= 1.96D-07  0.00D+00 EMaxC= 1.00D-01 BMatC= 5.80D-11 BMatP= 3.96D-09
 IDIUse=1 WtCom= 1.00D+00 WtEn= 0.00D+00
 Coeff-Com:  0.167D-05-0.188D-03-0.701D-04-0.139D-03-0.147D-02-0.638D-02
 Coeff-Com: -0.603D-02 0.152D-01 0.934D-01 0.906D+00
 Coeff:      0.167D-05-0.188D-03-0.701D-04-0.139D-03-0.147D-02-0.638D-02
 Coeff:     -0.603D-02 0.152D-01 0.934D-01 0.906D+00
 Gap=     0.133 Goal=   None    Shift=    0.000
 RMSDP=4.77D-08 MaxDP=2.40D-06 DE=-4.10D-09 OVMax= 6.90D-06

 Cycle  11  Pass 1  IDiag  1:
 RMSU=  2.51D-08    CP:  9.99D-01  8.71D-01  4.12D-01  3.84D-01  7.13D-01
                    CP:  1.13D+00  6.52D-01  4.51D-01  8.24D-01  1.10D+00
 E= -7517.83226373930     Delta-E=       -0.000000000131 Rises=F Damp=F
 DIIS: error= 9.89D-08 at cycle  11 NSaved=  11.
 NSaved=11 IEnMin=11 EnMin= -7517.83226373930     IErMin=11 ErrMin= 9.89D-08
 ErrMax= 9.89D-08  0.00D+00 EMaxC= 1.00D-01 BMatC= 1.19D-11 BMatP= 5.80D-11
 IDIUse=1 WtCom= 1.00D+00 WtEn= 0.00D+00
 Coeff-Com: -0.113D-06 0.370D-03 0.161D-03 0.248D-03-0.318D-03-0.898D-02
 Coeff-Com: -0.140D-01-0.724D-02 0.215D-01 0.439D+00 0.569D+00
 Coeff:     -0.113D-06 0.370D-03 0.161D-03 0.248D-03-0.318D-03-0.898D-02
 Coeff:     -0.140D-01-0.724D-02 0.215D-01 0.439D+00 0.569D+00
 Gap=     0.133 Goal=   None    Shift=    0.000
 RMSDP=1.48D-08 MaxDP=1.10D-06 DE=-1.31D-10 OVMax= 2.01D-06

 Cycle  12  Pass 1  IDiag  1:
 RMSU=  1.01D-08    CP:  9.99D-01  8.71D-01  4.12D-01  3.84D-01  7.14D-01
                    CP:  1.13D+00  6.53D-01  4.50D-01  8.40D-01  1.16D+00
                    CP:  7.25D-01
 E= -7517.83226373904     Delta-E=        0.000000000262 Rises=F Damp=F
 DIIS: error= 4.95D-08 at cycle  12 NSaved=  12.
 NSaved=12 IEnMin=11 EnMin= -7517.83226373930     IErMin=12 ErrMin= 4.95D-08
 ErrMax= 4.95D-08  0.00D+00 EMaxC= 1.00D-01 BMatC= 2.12D-12 BMatP= 1.19D-11
 IDIUse=1 WtCom= 1.00D+00 WtEn= 0.00D+00
 Coeff-Com: -0.306D-06 0.256D-03 0.112D-03 0.173D-03 0.773D-05-0.459D-02
 Coeff-Com: -0.788D-02-0.699D-02 0.526D-03 0.149D+00 0.335D+00 0.535D+00
 Coeff:     -0.306D-06 0.256D-03 0.112D-03 0.173D-03 0.773D-05-0.459D-02
 Coeff:     -0.788D-02-0.699D-02 0.526D-03 0.149D+00 0.335D+00 0.535D+00
 Gap=     0.133 Goal=   None    Shift=    0.000
 RMSDP=6.24D-09 MaxDP=3.57D-07 DE= 2.62D-10 OVMax= 8.29D-07

 SCF Done:  E(RPBE1PBE) =  -7517.83226374     A.U. after   12 cycles
            NFock= 12  Conv=0.62D-08     -V/T= 2.1284
 KE= 6.662178664011D+03 PE=-2.486313837291D+04 EE= 7.047296526244D+03
 Leave Link  502 at Tue Mar  6 12:28:15 2018, MaxMem=   536870912 cpu:      2533.6
 (Enter /share/apps//mg09/l701.exe)
 Compute integral first derivatives.
 ... and contract with generalized density number  0.
   1 Symmetry operations used in ECPInt.
 ECPInt:  NShTT=   10440 NPrTT=   41973 LenC2=    9720 LenP2D=   27607.
 LDataN:  DoStor=T MaxTD1= 9 Len=  602
 Leave Link  701 at Tue Mar  6 12:28:34 2018, MaxMem=   536870912 cpu:        75.1
 (Enter /share/apps//mg09/l702.exe)
 L702 exits ... SP integral derivatives will be done elsewhere.
 Leave Link  702 at Tue Mar  6 12:28:34 2018, MaxMem=   536870912 cpu:         0.1
 (Enter /share/apps//mg09/l703.exe)
 Compute integral first derivatives, UseDBF=F ICtDFT=           0.
 Integral derivatives from FoFJK, PRISM(SPDF).
 Calling FoFJK, ICntrl=      2127 FMM=F ISym2X=0 I1Cent= 0 IOpClX= 0 NMat=1 NMatS=1 NMatT=0.
 FoFJK:  IHMeth= 1 ICntrl=    2127 DoSepK=F KAlg= 0 I1Cent=   0 FoldK=F
 IRaf=         0 NMat=   1 IRICut=       1 DoRegI=T DoRafI=F ISym2E= 0.
 FoFCou: FMM=F IPFlag=           0 FMFlag=      100000 FMFlg1=         800
         NFxFlg=           0 DoJE=F BraDBF=F KetDBF=F FulRan=T
         wScrn=  0.000000 ICntrl=    2127 IOpCl=  0 I1Cent=           0 NGrid=           0
         NMat0=    1 NMatS0=      1 NMatT0=    0 NMatD0=    1 NMtDS0=    0 NMtDT0=    0
 Symmetry not used in FoFCou.
 Defaulting to unpruned grid for atomic number  50.
 Defaulting to unpruned grid for atomic number  50.
 Defaulting to unpruned grid for atomic number  50.
 Defaulting to unpruned grid for atomic number  50.
 Leave Link  703 at Tue Mar  6 12:33:26 2018, MaxMem=   536870912 cpu:      1121.1
 (Enter /share/apps//mg09/l716.exe)
 Dipole        = 1.83757812D-01 7.18080352D-04-9.39405186D-01
 ***** Axes restored to original set *****
 -------------------------------------------------------------------
 Center     Atomic                   Forces (Hartrees/Bohr)
 Number     Number              X              Y              Z
 -------------------------------------------------------------------
      1       32          -0.005408576   -0.006715062   -0.002671955
      2       32           0.004802290    0.000063632   -0.007319616
      3       32          -0.005571702    0.006654722   -0.002703307
      4       50           0.004697043   -0.005057852    0.002188931
      5       50           0.004719052    0.005012661    0.002233334
      6       83          -0.001160468    0.000031830    0.000974470
      7       83          -0.000603706    0.000653799    0.002084398
      8       83          -0.000626735   -0.000664186    0.002083034
      9       83          -0.000847197    0.000020455    0.003130711
 -------------------------------------------------------------------
 Cartesian Forces:  Max     0.007319616 RMS     0.003695392
 Leave Link  716 at Tue Mar  6 12:33:26 2018, MaxMem=   536870912 cpu:         0.0
 (Enter /share/apps//mg09/l103.exe)

 GradGradGradGradGradGradGradGradGradGradGradGradGradGradGradGradGradGrad
 Berny optimization.
 Search for a local minimum.
 Step number   2 out of a maximum of  100
 All quantities printed in internal units (Hartrees-Bohrs-Radians)
 Update second derivatives using D2CorN and points    1    2
 DE= -6.69D-03 DEPred=-4.91D-03 R= 1.36D+00
 TightC=F SS=  1.41D+00  RLast= 2.37D-01 DXNew= 5.0454D-01 7.1195D-01
 Trust test= 1.36D+00 RLast= 2.37D-01 DXMaxT set to 5.05D-01
 ITU=  1  0
     Eigenvalues ---    0.07793   0.09455   0.12204   0.12340   0.12850
     Eigenvalues ---    0.12896   0.14018   0.14457   0.16083   0.16148
     Eigenvalues ---    0.17977   0.21767   0.21895   0.22049   0.24404
     Eigenvalues ---    0.25011   0.27155   0.28501   0.28605   0.30549
     Eigenvalues ---    0.32298
 RFO step:  Lambda=-7.00681294D-04 EMin= 7.79328539D-02
 Quartic linear search produced a step of  0.62918.
 TrRot= -0.000143  0.000003 -0.000288 -0.000001 -0.000017 -0.000001
 Variable       Old X    -DE/DX   Delta X   Delta X   Delta X     New X
                                 (Linear)    (Quad)   (Total)
    X1        1.68404  -0.00541  -0.03129  -0.00829  -0.03977   1.64427
    Y1        2.79744  -0.00672  -0.03770  -0.00980  -0.04750   2.74994
    Z1        3.69216  -0.00267  -0.02086  -0.00266  -0.02378   3.66838
    X2       -2.00695   0.00480   0.02938   0.00951   0.03865  -1.96831
    Y2       -0.00913   0.00006   0.00032   0.00029   0.00062  -0.00850
    Z2        5.48178  -0.00732  -0.05862  -0.00726  -0.06620   5.41558
    X3        1.71164  -0.00557  -0.03196  -0.00883  -0.04101   1.67063
    Y3       -2.77980   0.00665   0.03738   0.00964   0.04701  -2.73278
    Z3        3.69429  -0.00270  -0.02091  -0.00273  -0.02390   3.67039
    X4       -3.73800   0.00470   0.03879   0.00151   0.04014  -3.69787
    Y4        3.06254  -0.00506  -0.03939  -0.00576  -0.04513   3.01741
    Z4        1.45533   0.00219   0.00555   0.00799   0.01319   1.46852
    X5       -3.71413   0.00472   0.03871   0.00189   0.04042  -3.67370
    Y5       -3.09130   0.00501   0.03930   0.00528   0.04460  -3.04670
    Z5        1.45474   0.00223   0.00575   0.00827   0.01368   1.46842
    X6       -2.66836  -0.00116   0.01826  -0.02162  -0.00344  -2.67179
    Y6       -0.01315   0.00003   0.00022   0.00007   0.00030  -0.01285
    Z6       -3.36882   0.00097   0.03297  -0.01601   0.01663  -3.35219
    X7        0.97288  -0.00060  -0.01129   0.00250  -0.00889   0.96399
    Y7        4.02777   0.00065  -0.03023   0.02656  -0.00367   4.02410
    Z7       -1.65658   0.00208   0.02227   0.00032   0.02231  -1.63427
    X8        1.00803  -0.00063  -0.01179   0.00260  -0.00932   0.99871
    Y8       -4.02049  -0.00066   0.03020  -0.02645   0.00375  -4.01673
    Z8       -1.65326   0.00208   0.02216   0.00023   0.02212  -1.63114
    X9        4.62538  -0.00085  -0.03880   0.02217  -0.01677   4.60860
    Y9        0.01996   0.00002  -0.00010   0.00012   0.00001   0.01997
    Z9        0.05525   0.00313   0.01169   0.01447   0.02595   0.08120
         Item               Value     Threshold  Converged?
[...]
     X               X         X  X    X           X X    XX                                                                         
     X               X         X  X    X           X X    XX                                                                         
     X               X         X  X    X           X X    XX                                                                         
     X               X         X  X    X           X X     X                                                                         
     X                            X                X X     X                                                                         
     X                            X                X X     X                                                                         
     X                            X                  X     X                                                                         
     X                            X                                                                                                  
     X                            X                                                                                                  
     X                            X                                                                                                  
     X                            X                                                                                                  
     X                            X                                                                                                  
     X                            X                                                                                                  
     X                                                                                                                               
 
 ***** Axes restored to original set *****
 -------------------------------------------------------------------
 Center     Atomic                   Forces (Hartrees/Bohr)
 Number     Number              X              Y              Z
 -------------------------------------------------------------------
      1       32           0.000041405    0.000005143   -0.000005404
      2       32          -0.000017472    0.000000429    0.000095218
      3       32           0.000026879   -0.000008107   -0.000010408
      4       50           0.000014921    0.000051556   -0.000092657
      5       50           0.000022982   -0.000048897   -0.000086855
      6       83           0.000022793    0.000001372    0.000091431
      7       83          -0.000029902   -0.000068410    0.000030076
      8       83          -0.000025912    0.000063038    0.000029181
      9       83          -0.000055694    0.000003875   -0.000050582
 -------------------------------------------------------------------
 Cartesian Forces:  Max     0.000095218 RMS     0.000047336
 Force constants in Cartesian coordinates: 
                1             2             3             4             5 
      1  0.586803D-01
      2  0.140503D-01  0.528112D-01
      3 -0.966356D-02  0.478504D-02  0.622322D-01
      4 -0.248696D-01 -0.173342D-01  0.141224D-01  0.644950D-01
      5 -0.186850D-01 -0.138799D-01  0.107031D-01  0.336639D-04  0.558965D-01
      6  0.980998D-02  0.721027D-02 -0.796635D-02 -0.139703D-01 -0.580227D-04
      7  0.329453D-02 -0.125923D-02 -0.200084D-02 -0.251877D-01  0.185907D-01
      8  0.142751D-02 -0.159699D-01  0.165308D-02  0.172417D-01 -0.135743D-01
      9 -0.198709D-02 -0.166572D-02 -0.365734D-02  0.142074D-01 -0.105759D-01
     10 -0.139675D-01  0.286864D-02 -0.507870D-02 -0.409526D-02  0.643086D-02
     11  0.295852D-03  0.104099D-02 -0.347588D-02  0.756289D-02 -0.118426D-01
     12 -0.618421D-02 -0.225294D-02 -0.280596D-02 -0.909315D-02  0.160241D-01
     13 -0.557546D-02  0.640962D-03  0.393144D-03 -0.397593D-02 -0.636423D-02
     14 -0.177038D-02 -0.629628D-02  0.115350D-02 -0.749803D-02 -0.119783D-01
     15 -0.328260D-02 -0.196357D-02 -0.308086D-02 -0.895204D-02 -0.161052D-01
     16 -0.297804D-02  0.228256D-02 -0.288599D-02 -0.336558D-03  0.000000D+00
     17 -0.323165D-02 -0.317832D-03 -0.833631D-02  0.000000D+00 -0.316495D-03
     18 -0.121812D-02 -0.119680D-02 -0.264412D-02 -0.180034D-02 -0.836415D-05
     19 -0.100702D-02 -0.295732D-02 -0.295883D-02 -0.166900D-02 -0.207253D-02
     20 -0.231933D-02 -0.416370D-02  0.732240D-02  0.286713D-04 -0.105687D-02
     21 -0.215309D-02  0.901425D-02 -0.249116D-01  0.105472D-02  0.229399D-02
     22  0.228876D-02 -0.589291D-02 -0.508796D-02 -0.168460D-02  0.206825D-02
     23  0.215814D-02 -0.517933D-02 -0.246102D-02 -0.331562D-04 -0.103989D-02
     24 -0.501710D-03 -0.322980D-02 -0.425546D-02  0.107554D-02 -0.228814D-02
     25 -0.158660D-01  0.760115D-02  0.131603D-01 -0.267630D-02 -0.259093D-05
     26  0.807450D-02 -0.804529D-02 -0.113439D-01 -0.128089D-05 -0.220816D-02
     27  0.151804D-01 -0.107007D-01 -0.129106D-01  0.335582D-02  0.144130D-04
                6             7             8             9            10 
      6  0.751649D-01
      7  0.986485D-02  0.589189D-01
      8 -0.712160D-02 -0.140005D-01  0.525603D-01
      9 -0.795699D-02 -0.963157D-02 -0.487068D-02  0.622376D-01
     10 -0.621350D-02 -0.558530D-02 -0.636582D-03  0.404005D-03  0.543610D-01
     11  0.132406D-01  0.177640D-02 -0.628642D-02 -0.114767D-02 -0.144999D-01
     12 -0.212596D-01 -0.329950D-02  0.193679D-02 -0.308095D-02 -0.691782D-02
     13 -0.609628D-02 -0.139209D-01 -0.299817D-02 -0.509970D-02 -0.903515D-03
     14 -0.132965D-01 -0.428330D-03  0.101766D-02  0.342828D-02 -0.101000D-02
     15 -0.212440D-01 -0.619440D-02  0.219776D-02 -0.280846D-02  0.218682D-02
     16  0.267424D-02 -0.298585D-02 -0.230797D-02 -0.295577D-02 -0.372047D-03
     17  0.106883D-04  0.320826D-02 -0.303993D-03  0.830941D-02  0.441346D-02
     18 -0.412215D-02 -0.122980D-02  0.118390D-02 -0.264796D-02  0.101903D-02
     19  0.171691D-02  0.225654D-02  0.595346D-02 -0.511299D-02 -0.221637D-01
     20 -0.110966D-02 -0.209572D-02 -0.514403D-02  0.241805D-02 -0.438974D-02
     21 -0.408204D-02 -0.529585D-03  0.322533D-02 -0.425755D-02  0.150825D-01
     22  0.170654D-02 -0.105412D-02  0.298465D-02 -0.289841D-02 -0.320940D-02
     23  0.112273D-02  0.234429D-02 -0.412623D-02 -0.735689D-02 -0.781987D-03
     24 -0.408091D-02 -0.207929D-02 -0.903986D-02 -0.248959D-01  0.101416D-02
     25  0.507601D-03 -0.157360D-01 -0.766417D-02  0.130741D-01 -0.406421D-02
     26  0.157014D-05 -0.813586D-02 -0.817315D-02  0.114611D-01  0.760525D-02
     27 -0.445289D-02  0.151001D-01  0.108353D-01 -0.129325D-01 -0.149645D-02
               11            12            13            14            15 
     11  0.489450D-01
     12 -0.556432D-02  0.552909D-01
     13  0.115251D-02  0.218733D-02  0.540989D-01
     14 -0.175384D-01 -0.906624D-04  0.145397D-01  0.491996D-01
     15  0.117711D-03  0.256082D-02 -0.698183D-02  0.550585D-02  0.552883D-01
     16  0.434763D-02  0.240644D-02 -0.297592D-03 -0.428294D-02  0.231727D-02
     17 -0.766188D-02 -0.107136D-01 -0.435057D-02 -0.772691D-02  0.107289D-01
     18 -0.109017D-01 -0.218864D-01  0.926875D-03  0.109063D-01 -0.219033D-01
     19 -0.506356D-02  0.150131D-01 -0.317629D-02 -0.460619D-02  0.486585D-02
     20 -0.301736D-02  0.631204D-02  0.782011D-03 -0.307003D-02  0.220123D-02
     21  0.778649D-02 -0.108321D-01  0.103375D-02 -0.229785D-02  0.227643D-02
     22  0.460806D-02  0.488185D-02 -0.222494D-01  0.490503D-02  0.150657D-01
     23 -0.303719D-02 -0.215605D-02  0.423312D-02 -0.294414D-02 -0.618617D-02
     24  0.230950D-02  0.227520D-02  0.151489D-01 -0.766139D-02 -0.108244D-01
     25 -0.179863D-03  0.100595D-02 -0.399980D-02  0.151173D-03  0.975215D-03
     26 -0.602060D-03 -0.349539D-02 -0.763529D-02 -0.663145D-03  0.350348D-02
     27 -0.236470D-02 -0.261861D-03 -0.151220D-02  0.235248D-02 -0.264532D-03
               16            17            18            19            20 
     16  0.479239D-01
     17 -0.549543D-04  0.614369D-01
     18  0.181679D-01  0.756239D-04  0.708276D-01
     19 -0.179636D-01 -0.200156D-01 -0.816317D-02  0.645326D-01
     20 -0.189123D-01 -0.226346D-01 -0.803332D-02  0.896282D-02  0.680756D-01
     21 -0.620520D-02 -0.609414D-02 -0.835422D-02 -0.397924D-03 -0.213712D-01
     22 -0.183020D-01  0.200510D-01 -0.824556D-02  0.279668D-03 -0.120157D-02
     23  0.189480D-01 -0.222927D-01  0.797214D-02  0.126128D-02 -0.655009D-02
     24 -0.627169D-02  0.605124D-02 -0.836243D-02 -0.546968D-03  0.370882D-02
     25 -0.468814D-02 -0.197260D-04  0.543179D-03 -0.210891D-01  0.191452D-01
     26 -0.209566D-04 -0.182461D-03  0.218516D-05  0.185376D-01 -0.224390D-01
     27 -0.724721D-02 -0.318265D-04 -0.906945D-03 -0.441600D-02  0.855164D-02
               21            22            23            24            25 
     21  0.556515D-01
     22 -0.514748D-03  0.646994D-01
     23 -0.370881D-02 -0.899331D-02  0.679470D-01
     24  0.628217D-03 -0.574004D-03  0.213554D-01  0.556234D-01
     25 -0.737038D-02 -0.207683D-01 -0.191364D-01 -0.726495D-02  0.888879D-01
     26  0.111519D-01 -0.185292D-01 -0.227774D-01 -0.112057D-01  0.105267D-03
     27 -0.611864D-02 -0.433343D-02 -0.858128D-02 -0.610765D-02 -0.146311D-01
               26            27 
     26  0.650907D-01
     27 -0.752655D-04  0.439556D-01
 Leave Link  716 at Tue Mar  6 15:02:42 2018, MaxMem=   536870912 cpu:         0.1
 (Enter /share/apps//mg09/l103.exe)

 GradGradGradGradGradGradGradGradGradGradGradGradGradGradGradGradGradGrad
 Berny optimization.
 Search for a local minimum.
 Step number   1 out of a maximum of    2
 All quantities printed in internal units (Hartrees-Bohrs-Radians)
 Second derivative matrix not updated -- analytic derivatives used.
 ITU=  0
     Eigenvalues ---    0.01677   0.02623   0.02720   0.04194   0.04398
     Eigenvalues ---    0.05143   0.05380   0.05659   0.05840   0.06344
     Eigenvalues ---    0.06792   0.06813   0.08000   0.09907   0.10018
     Eigenvalues ---    0.10080   0.11177   0.12388   0.13464   0.13743
     Eigenvalues ---    0.14939
 Angle between quadratic step and forces=  37.16 degrees.
 Linear search not attempted -- first point.
 TrRot= -0.000002 -0.000001  0.000028 -0.000001 -0.000002 -0.000001
 Variable       Old X    -DE/DX   Delta X   Delta X   Delta X     New X
                                 (Linear)    (Quad)   (Total)
    X1        1.62734   0.00004   0.00000   0.00053   0.00053   1.62787
    Y1        2.72516   0.00001   0.00000  -0.00059  -0.00060   2.72457
    Z1        3.64457  -0.00001   0.00000   0.00044   0.00047   3.64504
    X2       -1.96969  -0.00002   0.00000  -0.00083  -0.00084  -1.97054
    Y2       -0.00714   0.00000   0.00000   0.00012   0.00012  -0.00702
    Z2        5.44584   0.00010   0.00000   0.00040   0.00042   5.44626
    X3        1.65114   0.00003   0.00000   0.00020   0.00019   1.65133
    Y3       -2.70882  -0.00001   0.00000   0.00046   0.00046  -2.70836
    Z3        3.64609  -0.00001   0.00000   0.00032   0.00035   3.64644
    X4       -3.68904   0.00001   0.00000   0.00038   0.00038  -3.68866
    Y4        2.99956   0.00005   0.00000   0.00096   0.00097   3.00053
    Z4        1.47634  -0.00009   0.00000  -0.00100  -0.00098   1.47536
    X5       -3.66320   0.00002   0.00000   0.00060   0.00059  -3.66260
    Y5       -3.03039  -0.00005   0.00000  -0.00098  -0.00098  -3.03137
    Z5        1.47776  -0.00009   0.00000  -0.00084  -0.00082   1.47694
    X6       -2.67331   0.00002   0.00000  -0.00027  -0.00026  -2.67357
    Y6       -0.01235   0.00000   0.00000  -0.00001   0.00000  -0.01235
    Z6       -3.36385   0.00009   0.00000   0.00099   0.00101  -3.36284
    X7        0.96519  -0.00003   0.00000  -0.00013  -0.00012   0.96507
    Y7        4.04002  -0.00007   0.00000  -0.00045  -0.00045   4.03956
    Z7       -1.63433   0.00003   0.00000   0.00026   0.00029  -1.63404
    X8        0.99995  -0.00003   0.00000   0.00000   0.00000   0.99994
    Y8       -4.03221   0.00006   0.00000   0.00043   0.00043  -4.03178
    Z8       -1.63217   0.00003   0.00000   0.00019   0.00022  -1.63196
    X9        4.62615  -0.00006   0.00000  -0.00045  -0.00045   4.62570
    Y9        0.02002   0.00000   0.00000   0.00007   0.00006   0.02008
    Z9        0.09466  -0.00005   0.00000  -0.00101  -0.00097   0.09369
         Item               Value     Threshold  Converged?
 Maximum Force            0.000095     0.000450     YES
 RMS     Force            0.000047     0.000300     YES
 Maximum Displacement     0.001007     0.001800     YES
 RMS     Displacement     0.000574     0.001200     YES
 Predicted change in Energy=-2.920409D-07
 Optimization completed.
    -- Stationary point found.
 GradGradGradGradGradGradGradGradGradGradGradGradGradGradGradGradGradGrad

 Leave Link  103 at Tue Mar  6 15:02:42 2018, MaxMem=   536870912 cpu:         0.1
 (Enter /share/apps//mg09/l9999.exe)
 1\1\GINC-COMPUTE-0-6\Freq\RPBE1PBE\def2TZVP\Bi4Ge3Sn2\RODRIGO\06-Mar-2
 018\0\\#P Geom=AllCheck Guess=TCheck SCRF=Check GenChk RPBE1PBE/def2TZ
 VP Freq\\01Final_coords.xyz_02\\0,1\Ge,0.8611525812,1.4420941721,1.928
 6225576\Ge,-1.0423156763,-0.0037775144,2.8818143127\Ge,0.8737465966,-1
 .4334449608,1.9294257317\Sn,-1.9521560425,1.5872979314,0.7812445913\Sn
 ,-1.9384794911,-1.6036159497,0.7819955142\Bi,-1.4146561899,-0.00653554
 78,-1.7800703319\Bi,0.5107557489,2.1378851957,-0.8648515867\Bi,0.52914
 83931,-2.1337518769,-0.8637096089\Bi,2.4480550772,0.0105965504,0.05009
 18193\\Version=ES64L-G09RevD.01\State=1-A\HF=-7517.8341764\RMSD=2.569e
 -09\RMSF=4.734e-05\ZeroPoint=0.0059585\Thermal=0.0233151\Dipole=0.2139
 449,0.000659,-0.9708191\DipoleDeriv=-0.034083,0.0270668,0.0470964,0.04
 71342,-0.0193945,0.0364603,0.047483,0.0251885,-0.027706,-0.185585,0.00
 00605,-0.1338567,0.0000643,-0.2069471,-0.0004722,-0.0728495,-0.0002284
 ,0.1618893,-0.0333955,-0.0271205,0.0474409,-0.0472199,-0.0200563,-0.03
 60643,0.0477813,-0.0247714,-0.0276523,0.186732,-0.171263,-0.0268811,-0
 .1592124,0.1647276,0.0512865,-0.0214916,0.0438372,-0.0012725,0.1838984
 ,0.17138,-0.0265053,0.1593694,0.1675403,-0.0515962,-0.0212253,-0.04412
 65,-0.0012352,-0.0029516,0.000565,0.0588307,0.0005528,-0.131254,0.0002
 691,0.0246201,0.0001425,-0.0180859,-0.0820102,0.0046073,-0.0053128,0.0
 379722,0.0430361,-0.0005219,-0.023831,0.0107514,-0.0442686,-0.0816678,
 -0.0056836,-0.0053238,-0.0390527,0.0426327,0.0004406,-0.0237215,-0.010
 9931,-0.0442889,0.0490626,0.0003875,0.0445116,0.0003921,-0.0402849,0.0
 001981,0.0432345,0.0001999,0.0026203\Polar=382.9686042,0.0207637,378.2
 149693,-6.8348356,-0.0338808,368.7722946\PG=C01 [X(Bi4Ge3Sn2)]\NImag=0
 \\0.05868034,0.01405034,0.05281121,-0.00966356,0.00478504,0.06223223,-
 0.02486963,-0.01733421,0.01412241,0.06449500,-0.01868499,-0.01387987,0
 .01070309,0.00003366,0.05589649,0.00980998,0.00721027,-0.00796635,-0.0
 1397034,-0.00005802,0.07516487,0.00329453,-0.00125923,-0.00200084,-0.0
 2518773,0.01859065,0.00986485,0.05891889,0.00142751,-0.01596989,0.0016
 5308,0.01724174,-0.01357427,-0.00712160,-0.01400046,0.05256032,-0.0019
 8709,-0.00166572,-0.00365734,0.01420738,-0.01057591,-0.00795699,-0.009
 63157,-0.00487068,0.06223764,-0.01396753,0.00286864,-0.00507870,-0.004
 09526,0.00643086,-0.00621350,-0.00558530,-0.00063658,0.00040401,0.0543
 6100,0.00029585,0.00104099,-0.00347588,0.00756289,-0.01184262,0.013240
 57,0.00177640,-0.00628642,-0.00114767,-0.01449992,0.04894498,-0.006184
 21,-0.00225294,-0.00280596,-0.00909315,0.01602414,-0.02125956,-0.00329
 950,0.00193679,-0.00308095,-0.00691782,-0.00556432,0.05529087,-0.00557
 546,0.00064096,0.00039314,-0.00397593,-0.00636423,-0.00609628,-0.01392
 094,-0.00299817,-0.00509970,-0.00090351,0.00115251,0.00218733,0.054098
 88,-0.00177038,-0.00629628,0.00115350,-0.00749803,-0.01197831,-0.01329
 654,-0.00042833,0.00101766,0.00342828,-0.00101000,-0.01753844,-0.00009
 066,0.01453966,0.04919960,-0.00328260,-0.00196357,-0.00308086,-0.00895
 204,-0.01610520,-0.02124397,-0.00619440,0.00219776,-0.00280846,0.00218
 682,0.00011771,0.00256082,-0.00698183,0.00550585,0.05528830,-0.0029780
 4,0.00228256,-0.00288599,-0.00033656,0.00000091,0.00267424,-0.00298585
 ,-0.00230797,-0.00295577,-0.00037205,0.00434763,0.00240644,-0.00029759
 ,-0.00428294,0.00231727,0.04792385,-0.00323165,-0.00031783,-0.00833631
 ,-0.00000029,-0.00031650,0.00001069,0.00320826,-0.00030399,0.00830941,
 0.00441346,-0.00766188,-0.01071360,-0.00435057,-0.00772691,0.01072891,
 -0.00005495,0.06143686,-0.00121812,-0.00119680,-0.00264412,-0.00180034
 ,-0.00000836,-0.00412215,-0.00122980,0.00118390,-0.00264796,0.00101903
 ,-0.01090170,-0.02188644,0.00092687,0.01090634,-0.02190329,0.01816792,
 0.00007562,0.07082755,-0.00100702,-0.00295732,-0.00295883,-0.00166900,
 -0.00207253,0.00171691,0.00225654,0.00595346,-0.00511299,-0.02216374,-
 0.00506356,0.01501311,-0.00317629,-0.00460619,0.00486585,-0.01796360,-
 0.02001557,-0.00816317,0.06453257,-0.00231933,-0.00416370,0.00732240,0
 .00002867,-0.00105687,-0.00110966,-0.00209572,-0.00514403,0.00241805,-
 0.00438974,-0.00301736,0.00631204,0.00078201,-0.00307003,0.00220123,-0
 .01891231,-0.02263458,-0.00803332,0.00896282,0.06807564,-0.00215309,0.
 00901425,-0.02491157,0.00105472,0.00229399,-0.00408204,-0.00052958,0.0
 0322533,-0.00425755,0.01508246,0.00778649,-0.01083211,0.00103375,-0.00
 229785,0.00227643,-0.00620520,-0.00609414,-0.00835422,-0.00039792,-0.0
 2137120,0.05565148,0.00228876,-0.00589291,-0.00508796,-0.00168460,0.00
 206825,0.00170654,-0.00105412,0.00298465,-0.00289841,-0.00320940,0.004
 60806,0.00488185,-0.02224936,0.00490503,0.01506571,-0.01830203,0.02005
 103,-0.00824556,0.00027967,-0.00120157,-0.00051475,0.06469940,0.002158
 14,-0.00517933,-0.00246102,-0.00003316,-0.00103989,0.00112273,0.002344
 29,-0.00412623,-0.00735689,-0.00078199,-0.00303719,-0.00215605,0.00423
 312,-0.00294414,-0.00618617,0.01894803,-0.02229270,0.00797214,0.001261
 28,-0.00655009,-0.00370881,-0.00899331,0.06794702,-0.00050171,-0.00322
 980,-0.00425546,0.00107554,-0.00228814,-0.00408091,-0.00207929,-0.0090
 3986,-0.02489588,0.00101416,0.00230950,0.00227520,0.01514891,-0.007661
 39,-0.01082444,-0.00627169,0.00605124,-0.00836243,-0.00054697,0.003708
 82,0.00062822,-0.00057400,0.02135537,0.05562336,-0.01586596,0.00760115
 ,0.01316032,-0.00267630,-0.00000259,0.00050760,-0.01573601,-0.00766417
 ,0.01307413,-0.00406421,-0.00017986,0.00100595,-0.00399980,0.00015117,
 0.00097521,-0.00468814,-0.00001973,0.00054318,-0.02108913,0.01914517,-
 0.00737038,-0.02076832,-0.01913641,-0.00726495,0.08888788,0.00807450,-
 0.00804529,-0.01134391,-0.00000128,-0.00220816,0.00000157,-0.00813586,
 -0.00817315,0.01146113,0.00760525,-0.00060206,-0.00349539,-0.00763529,
 -0.00066314,0.00350348,-0.00002096,-0.00018246,0.00000219,0.01853760,-
 0.02243899,0.01115194,-0.01852923,-0.02277745,-0.01120573,0.00010527,0
 .06509070,0.01518040,-0.01070072,-0.01291056,0.00335582,0.00001441,-0.
 00445289,0.01510014,0.01083527,-0.01293251,-0.00149645,-0.00236470,-0.
 00026186,-0.00151220,0.00235248,-0.00026453,-0.00724721,-0.00003183,-0
 .00090694,-0.00441600,0.00855164,-0.00611864,-0.00433343,-0.00858128,-
 0.00610765,-0.01463107,-0.00007527,0.04395558\\-0.00004140,-0.00000514
 ,0.00000540,0.00001747,-0.00000043,-0.00009522,-0.00002688,0.00000811,
 0.00001041,-0.00001492,-0.00005156,0.00009266,-0.00002298,0.00004890,0
 .00008686,-0.00002279,-0.00000137,-0.00009143,0.00002990,0.00006841,-0
 .00003008,0.00002591,-0.00006304,-0.00002918,0.00005569,-0.00000388,0.
 00005058\\\@


 IT IS WELL TO REMEMBER THAT MAN IS A PART OF NATURE AND THAT HIS WORKS,
 WHATEVER THEY MAY BE, ARE NO MORE "UNNATURAL" THAN 
 THE FLIGHT OF AN EAGLE OR THE PASSAGE OF A TORNADO.

                                    -- CHARLES MCCARRY IN "THE GREAT SOUTHWEST"
 Job cpu time:       0 days  4 hours 41 minutes 58.0 seconds.
 File lengths (MBytes):  RWF=    299 Int=      0 D2E=      0 Chk=     16 Scr=      1
 Normal termination of Gaussian 09 at Tue Mar  6 15:02:44 2018.
