 Entering Gaussian System, Link 0=/share/apps/mg09/g09
 Initial command:
 /share/apps//mg09/l1.exe "/state/partition1/gauss_tmp/Gau-6835.inp" -scrdir="/state/partition1/gauss_tmp/"
 Entering Link 1 = /share/apps//mg09/l1.exe PID=      6838.
  
 Copyright (c) 1988,1990,1992,1993,1995,1998,2003,2009,2013,
            Gaussian, Inc.  All Rights Reserved.
  
 This is part of the Gaussian(R) 09 program.  It is based on
 the Gaussian(R) 03 system (copyright 2003, Gaussian, Inc.),
 the Gaussian(R) 98 system (copyright 1998, Gaussian, Inc.),
 the Gaussian(R) 94 system (copyright 1995, Gaussian, Inc.),
 the Gaussian 92(TM) system (copyright 1992, Gaussian, Inc.),
 the Gaussian 90(TM) system (copyright 1990, Gaussian, Inc.),
 the Gaussian 88(TM) system (copyright 1988, Gaussian, Inc.),
 the Gaussian 86(TM) system (copyright 1986, Carnegie Mellon
 University), and the Gaussian 82(TM) system (copyright 1983,
 Carnegie Mellon University). Gaussian is a federally registered
 trademark of Gaussian, Inc.
  
 This software contains proprietary and confidential information,
 including trade secrets, belonging to Gaussian, Inc.
  
 This software is provided under written license and may be
 used, copied, transmitted, or stored only in accord with that
 written license.
  
 The following legend is applicable only to US Government
 contracts under FAR:
  
                    RESTRICTED RIGHTS LEGEND
  
 Use, reproduction and disclosure by the US Government is
 subject to restrictions as set forth in subparagraphs (a)
 and (c) of the Commercial Computer Software - Restricted
 Rights clause in FAR 52.227-19.
  
 Gaussian, Inc.
 340 Quinnipiac St., Bldg. 40, Wallingford CT 06492
  
  
 ---------------------------------------------------------------
 Warning -- This program may not be used in any manner that
 competes with the business of Gaussian, Inc. or will provide
 assistance to any competitor of Gaussian, Inc.  The licensee
 of this program is prohibited from giving any competitor of
 Gaussian, Inc. access to this program.  By using this program,
 the user acknowledges that Gaussian, Inc. is engaged in the
 business of creating and licensing software in the field of
 computational chemistry and represents and warrants to the
 licensee that it is not a competitor of Gaussian, Inc. and that
 it will not use this program in any manner prohibited above.
 ---------------------------------------------------------------
  

 Cite this work as:
 Gaussian 09, Revision D.01,
 M. J. Frisch, G. W. Trucks, H. B. Schlegel, G. E. Scuseria, 
 M. A. Robb, J. R. Cheeseman, G. Scalmani, V. Barone, B. Mennucci, 
 G. A. Petersson, H. Nakatsuji, M. Caricato, X. Li, H. P. Hratchian, 
 A. F. Izmaylov, J. Bloino, G. Zheng, J. L. Sonnenberg, M. Hada, 
 M. Ehara, K. Toyota, R. Fukuda, J. Hasegawa, M. Ishida, T. Nakajima, 
 Y. Honda, O. Kitao, H. Nakai, T. Vreven, J. A. Montgomery, Jr., 
 J. E. Peralta, F. Ogliaro, M. Bearpark, J. J. Heyd, E. Brothers, 
 K. N. Kudin, V. N. Staroverov, T. Keith, R. Kobayashi, J. Normand, 
 K. Raghavachari, A. Rendell, J. C. Burant, S. S. Iyengar, J. Tomasi, 
 M. Cossi, N. Rega, J. M. Millam, M. Klene, J. E. Knox, J. B. Cross, 
 V. Bakken, C. Adamo, J. Jaramillo, R. Gomperts, R. E. Stratmann, 
 O. Yazyev, A. J. Austin, R. Cammi, C. Pomelli, J. W. Ochterski, 
 R. L. Martin, K. Morokuma, V. G. Zakrzewski, G. A. Voth, 
 P. Salvador, J. J. Dannenberg, S. Dapprich, A. D. Daniels, 
 O. Farkas, J. B. Foresman, J. V. Ortiz, J. Cioslowski, 
 and D. J. Fox, Gaussian, Inc., Wallingford CT, 2013.
 
 ******************************************
 Gaussian 09:  ES64L-G09RevD.01 24-Apr-2013
                 6-Mar-2018 
 ******************************************
 %NProcShared=4
 Will use up to    4 processors via shared memory.
 %LindaWorkers=compute-0-11
 %chk=Isomer_30.chk
 %NProc=4
 Will use up to    4 processors via shared memory.
 %mem=4GB
 SetLPE:  input flags=" -vv -opt "Tsnet.Node.lindarsharg: ssh" "
 SetLPE:    new flags=" -vv -opt "Tsnet.Node.lindarsharg: ssh"  -nodelist 'compute-0-11.local'"
 Will use up to    1 processors via Linda.
 ----------------------------------------------------------------------
 #p PBE1PBE/Def2TZVP scf=(maxcycle=768) opt=(cartesian,maxcycle=512) fr
 eq
 ----------------------------------------------------------------------
 1/6=512,10=7,14=-1,18=10,26=3,38=1/1,3;
 2/12=2,17=6,18=5,29=2,40=1/2;
 3/5=44,7=101,11=2,16=1,25=1,30=1,71=1,74=-13/1,2,3;
 4//1;
 5/5=2,7=768,38=5/2;
 6/7=2,8=2,9=2,10=2,28=1/1;
 7/7=1,29=1/1,2,3,16;
 1/6=512,10=7,14=-1,18=10,26=3/3(2);
 2/29=1/2;
 99/12=1/99;
 2/29=1/2;
 3/5=44,7=101,11=2,16=1,25=1,30=1,71=1,74=-13/1,2,3;
 4/5=5,16=3,69=1/1;
 5/5=2,7=768,38=5/2;
 7/7=1/1,2,3,16;
 1/6=512,14=-1,18=10,26=3/3(-5);
 2/29=1/2;
 6/7=2,8=2,9=2,10=2,19=2,28=1/1;
 99/9=1,12=1/99;
 Leave Link    1 at Tue Mar  6 11:57:55 2018, MaxMem=   536870912 cpu:         0.5
 (Enter /share/apps//mg09/l101.exe)
 ---------------------
 01Final_coords.xyz_30
 ---------------------
 Symbolic Z-matrix:
 Charge =  0 Multiplicity = 1
 50                    1.21088  -2.15919   0.95666 
 83                   -0.40449   2.40415   0.20265 
 83                    1.92553  -0.56223  -1.55366 
 83                   -2.44726   0.25311  -0.42785 
 32                   -0.65736  -1.84388  -1.64744 
 32                   -0.70767   0.23074   2.26689 
 83                    1.94574   0.81094   1.21246 
 50                   -1.78193  -2.24527   1.10175 
 32                   -0.38711   0.95778  -2.36661 
 
 NAtoms=      9 NQM=        9 NQMF=       0 NMMI=      0 NMMIF=      0
                NMic=       0 NMicF=      0.
                    Isotopes and Nuclear Properties:
 (Nuclear quadrupole moments (NQMom) in fm**2, nuclear magnetic moments (NMagM)
  in nuclear magnetons)

  Atom         1           2           3           4           5           6           7           8           9
 IAtWgt=         118         209         209         209          74          74         209         118          74
 AtmWgt= 117.9018000 208.9804000 208.9804000 208.9804000  73.9211788  73.9211788 208.9804000 117.9018000  73.9211788
 NucSpn=           0           9           9           9           0           0           9           0           0
 AtZEff=   0.0000000   0.0000000   0.0000000   0.0000000   0.0000000   0.0000000   0.0000000   0.0000000   0.0000000
 NQMom=    0.0000000 -51.6000000 -51.6000000 -51.6000000   0.0000000   0.0000000 -51.6000000   0.0000000   0.0000000
 NMagM=    0.0000000   4.1106000   4.1106000   4.1106000   0.0000000   0.0000000   4.1106000   0.0000000   0.0000000
 AtZNuc=  50.0000000  83.0000000  83.0000000  83.0000000  32.0000000  32.0000000  83.0000000  50.0000000  32.0000000
 Leave Link  101 at Tue Mar  6 11:57:55 2018, MaxMem=   536870912 cpu:         0.3
 (Enter /share/apps//mg09/l103.exe)

 GradGradGradGradGradGradGradGradGradGradGradGradGradGradGradGradGradGrad
 Berny optimization.
 Initialization pass.
 No Z-matrix variables, so optimization will use Cartesian coordinates.
 Trust Radius=3.00D-01 FncErr=1.00D-07 GrdErr=1.00D-06
 Number of steps in this run=    100 maximum allowed number of steps=    100.
 GradGradGradGradGradGradGradGradGradGradGradGradGradGradGradGradGradGrad

 Leave Link  103 at Tue Mar  6 11:57:55 2018, MaxMem=   536870912 cpu:         0.1
 (Enter /share/apps//mg09/l202.exe)
 ---------------------------------------------------------------------------------------------------
                            Z-MATRIX (ANGSTROMS AND DEGREES)
   CD    Cent   Atom    N1       Length/X        N2       Alpha/Y        N3        Beta/Z          J
 ---------------------------------------------------------------------------------------------------
      1      1  Sn       0   1.210875         -2.159195          0.956660
      2      2  Bi       0  -0.404487          2.404153          0.202647
      3      3  Bi       0   1.925529         -0.562233         -1.553655
      4      4  Bi       0  -2.447256          0.253110         -0.427849
      5      5  Ge       0  -0.657357         -1.843881         -1.647444
      6      6  Ge       0  -0.707670          0.230736          2.266888
      7      7  Bi       0   1.945744          0.810935          1.212456
      8      8  Sn       0  -1.781931         -2.245273          1.101754
      9      9  Ge       0  -0.387106          0.957781         -2.366614
 ---------------------------------------------------------------------------------------------------
                         Z-Matrix orientation:                         
 ---------------------------------------------------------------------
 Center     Atomic      Atomic             Coordinates (Angstroms)
 Number     Number       Type             X           Y           Z
 ---------------------------------------------------------------------
      1         50           0        1.210875   -2.159195    0.956660
      2         83           0       -0.404487    2.404153    0.202647
      3         83           0        1.925529   -0.562233   -1.553655
      4         83           0       -2.447256    0.253110   -0.427849
      5         32           0       -0.657357   -1.843881   -1.647444
      6         32           0       -0.707670    0.230736    2.266888
      7         83           0        1.945744    0.810935    1.212456
      8         50           0       -1.781931   -2.245273    1.101754
      9         32           0       -0.387106    0.957781   -2.366614
 ---------------------------------------------------------------------
                    Distance matrix (angstroms):
                    1          2          3          4          5
     1  Sn   0.000000
     2  Bi   4.899191   0.000000
     3  Bi   3.059853   4.160891   0.000000
     4  Bi   4.595433   3.032724   4.588406   0.000000
     5  Ge   3.220415   4.640320   2.884912   3.014718   0.000000
     6  Ge   3.333059   3.012765   4.707344   3.207533   4.430413
     7  Bi   3.070364   3.013577   3.088263   4.722311   4.690758
     8  Sn   2.997557   4.931826   4.860975   3.004041   2.997311
     9  Ge   4.828378   2.948457   2.884376   2.915405   2.905091
                    6          7          8          9
     6  Ge   0.000000
     7  Bi   2.913600   0.000000
     8  Sn   2.939761   4.821641   0.000000
     9  Ge   4.701138   4.274751   4.922872   0.000000
 Stoichiometry    Bi4Ge3Sn2
 Framework group  C1[X(Bi4Ge3Sn2)]
 Deg. of freedom    21
 Full point group                 C1      NOp   1
 Largest Abelian subgroup         C1      NOp   1
 Largest concise Abelian subgroup C1      NOp   1
                         Standard orientation:                         
 ---------------------------------------------------------------------
 Center     Atomic      Atomic             Coordinates (Angstroms)
 Number     Number       Type             X           Y           Z
 ---------------------------------------------------------------------
      1         50           0        1.210875    2.159195   -0.956660
      2         83           0       -0.404487   -2.404153   -0.202647
      3         83           0        1.925529    0.562233    1.553655
      4         83           0       -2.447256   -0.253110    0.427849
      5         32           0       -0.657357    1.843881    1.647444
      6         32           0       -0.707670   -0.230736   -2.266888
      7         83           0        1.945744   -0.810935   -1.212456
      8         50           0       -1.781931    2.245273   -1.101754
      9         32           0       -0.387106   -0.957781    2.366614
 ---------------------------------------------------------------------
 Rotational constants (GHZ):      0.1011923      0.0905318      0.0793305
 Leave Link  202 at Tue Mar  6 11:57:55 2018, MaxMem=   536870912 cpu:         0.0
 (Enter /share/apps//mg09/l301.exe)
 Standard basis: def2TZVP (5D, 7F)
 Ernie: Thresh=  0.10000D-02 Tol=  0.10000D-05 Strict=F.
 There are   519 symmetry adapted cartesian basis functions of A   symmetry.
 There are   444 symmetry adapted basis functions of A   symmetry.
   444 basis functions,   963 primitive gaussians,   519 cartesian basis functions
   116 alpha electrons      116 beta electrons
       nuclear repulsion energy      3536.0322655365 Hartrees.
 IExCor= 1009 DFT=T Ex+Corr=PBE1PBE ExCW=0 ScaHFX=  0.250000
 ScaDFX=  0.750000  0.750000  1.000000  1.000000 ScalE2=  1.000000  1.000000
 IRadAn=      0 IRanWt=     -1 IRanGd=            0 ICorTp=0 IEmpDi=  4
 NAtoms=    9 NActive=    9 NUniq=    9 SFac= 1.00D+00 NAtFMM=   60 NAOKFM=F Big=F
 Integral buffers will be    131072 words long.
 Raffenetti 2 integral format.
 Two-electron integral symmetry is turned on.
 Leave Link  301 at Tue Mar  6 11:57:56 2018, MaxMem=   536870912 cpu:         0.9
 (Enter /share/apps//mg09/l302.exe)
 NPDir=0 NMtPBC=     1 NCelOv=     1 NCel=       1 NClECP=     1 NCelD=      1
         NCelK=      1 NCelE2=     1 NClLst=     1 CellRange=     0.0.
 One-electron integrals computed using PRISM.
   1 Symmetry operations used in ECPInt.
 ECPInt:  NShTT=   10440 NPrTT=   41973 LenC2=    9656 LenP2D=   27461.
 LDataN:  DoStor=T MaxTD1= 8 Len=  415
 NBasis=   444 RedAO= T EigKep=  1.24D-03  NBF=   444
 NBsUse=   444 1.00D-06 EigRej= -1.00D+00 NBFU=   444
 Precomputing XC quadrature grid using
 IXCGrd= 4 IRadAn=           0 IRanWt=          -1 IRanGd=           0 AccXCQ= 0.00D+00.
 Defaulting to unpruned grid for atomic number  50.
 Defaulting to unpruned grid for atomic number  83.
 Defaulting to unpruned grid for atomic number  83.
 Generated NRdTot=       0 NPtTot=           0 NUsed=           0 NTot=          32
 NSgBfM=   502   502   502   502   502 MxSgAt=     9 MxSgA2=     9.
 Leave Link  302 at Tue Mar  6 11:58:03 2018, MaxMem=   536870912 cpu:        27.9
 (Enter /share/apps//mg09/l303.exe)
 DipDrv:  MaxL=1.
 Leave Link  303 at Tue Mar  6 11:58:08 2018, MaxMem=   536870912 cpu:         0.7
 (Enter /share/apps//mg09/l401.exe)
 ExpMin= 4.62D-02 ExpMax= 4.66D+05 ExpMxC= 4.50D+03 IAcc=2 IRadAn=         4 AccDes= 0.00D+00
 Harris functional with IExCor= 1009 and IRadAn=       4 diagonalized for initial guess.
 HarFok:  IExCor= 1009 AccDes= 0.00D+00 IRadAn=         4 IDoV= 1 UseB2=F ITyADJ=14
 ICtDFT=  3500011 ScaDFX=  1.000000  1.000000  1.000000  1.000000
 Defaulting to unpruned grid for atomic number  50.
 Defaulting to unpruned grid for atomic number  50.
 Defaulting to unpruned grid for atomic number  50.
 Defaulting to unpruned grid for atomic number  50.
 FoFCou: FMM=F IPFlag=           0 FMFlag=      100000 FMFlg1=           0
         NFxFlg=           0 DoJE=T BraDBF=F KetDBF=T FulRan=T
         wScrn=  0.000000 ICntrl=     500 IOpCl=  0 I1Cent=   200000004 NGrid=           0
         NMat0=    1 NMatS0=      1 NMatT0=    0 NMatD0=    1 NMtDS0=    0 NMtDT0=    0
 Petite list used in FoFCou.
 Harris En= -7518.59975329373    
 JPrj=0 DoOrth=F DoCkMO=F.
 Leave Link  401 at Tue Mar  6 11:58:13 2018, MaxMem=   536870912 cpu:        20.3
 (Enter /share/apps//mg09/l502.exe)
 Closed shell SCF:
 Using DIIS extrapolation, IDIIS=  1040.
 Integral symmetry usage will be decided dynamically.
 IVT=     1410107 IEndB=     1410107 NGot=   536870912 MDV=   536322046
 LenX=   536322046 LenY=   536052166
 Requested convergence on RMS density matrix=1.00D-08 within 768 cycles.
 Requested convergence on MAX density matrix=1.00D-06.
 Requested convergence on             energy=1.00D-06.
 No special actions if energy rises.
 Fock matrices will be formed incrementally for  20 cycles.

 Cycle   1  Pass 1  IDiag  1:
 FoFJK:  IHMeth= 1 ICntrl=       0 DoSepK=F KAlg= 0 I1Cent=   0 FoldK=F
 IRaf= 880000000 NMat=   1 IRICut=       1 DoRegI=T DoRafI=F ISym2E= 0.
 FoFCou: FMM=F IPFlag=           0 FMFlag=      100000 FMFlg1=           0
         NFxFlg=           0 DoJE=F BraDBF=F KetDBF=F FulRan=T
         wScrn=  0.000000 ICntrl=       0 IOpCl=  0 I1Cent=           0 NGrid=           0
         NMat0=    1 NMatS0=      1 NMatT0=    0 NMatD0=    1 NMtDS0=    0 NMtDT0=    0
 Symmetry not used in FoFCou.
 Defaulting to unpruned grid for atomic number  50.
 Defaulting to unpruned grid for atomic number  50.
 Defaulting to unpruned grid for atomic number  50.
 Defaulting to unpruned grid for atomic number  50.
 E= -7517.25217517223    
 DIIS: error= 3.09D-02 at cycle   1 NSaved=   1.
 NSaved= 1 IEnMin= 1 EnMin= -7517.25217517223     IErMin= 1 ErrMin= 3.09D-02
 ErrMax= 3.09D-02  0.00D+00 EMaxC= 1.00D-01 BMatC= 1.46D+00 BMatP= 1.46D+00
 IDIUse=3 WtCom= 6.91D-01 WtEn= 3.09D-01
 Coeff-Com:  0.100D+01
 Coeff-En:   0.100D+01
 Coeff:      0.100D+01
 Gap=     0.138 Goal=   None    Shift=    0.000
 GapD=    0.138 DampG=1.000 DampE=0.500 DampFc=0.5000 IDamp=-1.
 Damping current iteration by 5.00D-01
 RMSDP=5.12D-03 MaxDP=2.10D-01              OVMax= 6.29D-01

 Cycle   2  Pass 1  IDiag  1:
 RMSU=  2.55D-03    CP:  1.00D+00
 E= -7517.20445112861     Delta-E=        0.047724043619 Rises=F Damp=T
 DIIS: error= 1.14D-02 at cycle   2 NSaved=   2.
 NSaved= 2 IEnMin= 1 EnMin= -7517.25217517223     IErMin= 2 ErrMin= 1.14D-02
 ErrMax= 1.14D-02  0.00D+00 EMaxC= 1.00D-01 BMatC= 2.37D-01 BMatP= 1.46D+00
 IDIUse=3 WtCom= 8.86D-01 WtEn= 1.14D-01
 Coeff-Com:  0.119D+00 0.881D+00
 Coeff-En:   0.532D+00 0.468D+00
 Coeff:      0.166D+00 0.834D+00
 Gap=     0.119 Goal=   None    Shift=    0.000
 RMSDP=3.59D-03 MaxDP=1.66D-01 DE= 4.77D-02 OVMax= 5.70D-01

 Cycle   3  Pass 1  IDiag  1:
 RMSU=  2.95D-03    CP:  1.01D+00  2.00D-01
 E= -7516.04294027214     Delta-E=        1.161510856466 Rises=F Damp=F
 DIIS: error= 3.19D-02 at cycle   3 NSaved=   3.
 NSaved= 3 IEnMin= 1 EnMin= -7517.25217517223     IErMin= 2 ErrMin= 1.14D-02
 ErrMax= 3.19D-02  0.00D+00 EMaxC= 1.00D-01 BMatC= 1.33D+00 BMatP= 2.37D-01
 IDIUse=2 WtCom= 0.00D+00 WtEn= 1.00D+00
 EnCoef did    14 forward-backward iterations
 Coeff-En:   0.356D+00 0.526D+00 0.118D+00
 Coeff:      0.356D+00 0.526D+00 0.118D+00
 Gap=     0.155 Goal=   None    Shift=    0.000
 RMSDP=3.06D-03 MaxDP=1.20D-01 DE= 1.16D+00 OVMax= 3.45D-01

 Cycle   4  Pass 1  IDiag  1:
 RMSU=  1.11D-03    CP:  1.01D+00  8.93D-01  2.40D-01
 E= -7517.76068255493     Delta-E=       -1.717742282784 Rises=F Damp=F
 DIIS: error= 6.75D-03 at cycle   4 NSaved=   4.
 NSaved= 4 IEnMin= 4 EnMin= -7517.76068255493     IErMin= 4 ErrMin= 6.75D-03
 ErrMax= 6.75D-03  0.00D+00 EMaxC= 1.00D-01 BMatC= 1.18D-01 BMatP= 2.37D-01
 IDIUse=3 WtCom= 9.33D-01 WtEn= 6.75D-02
 Coeff-Com:  0.265D+00-0.175D+00-0.499D-01 0.960D+00
 Coeff-En:   0.000D+00 0.000D+00 0.000D+00 0.100D+01
 Coeff:      0.247D+00-0.163D+00-0.465D-01 0.963D+00
 Gap=     0.114 Goal=   None    Shift=    0.000
 RMSDP=7.79D-04 MaxDP=5.05D-02 DE=-1.72D+00 OVMax= 3.89D-02

 Cycle   5  Pass 1  IDiag  1:
 RMSU=  4.50D-04    CP:  1.00D+00  6.97D-01  1.40D-01  8.20D-01
 E= -7517.79761851268     Delta-E=       -0.036935957756 Rises=F Damp=F
 DIIS: error= 1.92D-03 at cycle   5 NSaved=   5.
 NSaved= 5 IEnMin= 5 EnMin= -7517.79761851268     IErMin= 5 ErrMin= 1.92D-03
 ErrMax= 1.92D-03  0.00D+00 EMaxC= 1.00D-01 BMatC= 1.54D-02 BMatP= 1.18D-01
 IDIUse=3 WtCom= 9.81D-01 WtEn= 1.92D-02
 Coeff-Com:  0.123D+00-0.158D+00-0.273D-01 0.528D+00 0.533D+00
 Coeff-En:   0.000D+00 0.000D+00 0.000D+00 0.000D+00 0.100D+01
 Coeff:      0.121D+00-0.155D+00-0.267D-01 0.518D+00 0.542D+00
 Gap=     0.125 Goal=   None    Shift=    0.000
 RMSDP=3.97D-04 MaxDP=3.00D-02 DE=-3.69D-02 OVMax= 4.50D-02

 Cycle   6  Pass 1  IDiag  1:
 RMSU=  2.94D-04    CP:  1.00D+00  6.74D-01  1.41D-01  8.66D-01  4.30D-01
 E= -7517.80037150785     Delta-E=       -0.002752995162 Rises=F Damp=F
 DIIS: error= 2.27D-03 at cycle   6 NSaved=   6.
 NSaved= 6 IEnMin= 6 EnMin= -7517.80037150785     IErMin= 5 ErrMin= 1.92D-03
 ErrMax= 2.27D-03  0.00D+00 EMaxC= 1.00D-01 BMatC= 7.25D-03 BMatP= 1.54D-02
 IDIUse=3 WtCom= 9.81D-01 WtEn= 1.92D-02
 Coeff-Com:  0.522D-01-0.840D-01 0.480D-03 0.253D+00 0.412D+00 0.367D+00
 Coeff-En:   0.000D+00 0.000D+00 0.000D+00 0.000D+00 0.440D+00 0.560D+00
 Coeff:      0.512D-01-0.824D-01 0.471D-03 0.248D+00 0.412D+00 0.371D+00
 Gap=     0.123 Goal=   None    Shift=    0.000
 RMSDP=2.70D-04 MaxDP=1.06D-02 DE=-2.75D-03 OVMax= 3.26D-02

 Cycle   7  Pass 1  IDiag  1:
 RMSU=  1.33D-04    CP:  1.00D+00  6.69D-01  1.62D-01  8.57D-01  6.40D-01
                    CP:  2.97D-01
 E= -7517.80787027506     Delta-E=       -0.007498767212 Rises=F Damp=F
 DIIS: error= 1.17D-03 at cycle   7 NSaved=   7.
 NSaved= 7 IEnMin= 7 EnMin= -7517.80787027506     IErMin= 7 ErrMin= 1.17D-03
 ErrMax= 1.17D-03  0.00D+00 EMaxC= 1.00D-01 BMatC= 1.40D-03 BMatP= 7.25D-03
 IDIUse=3 WtCom= 9.88D-01 WtEn= 1.17D-02
 Coeff-Com:  0.219D-01-0.409D-01 0.790D-02 0.116D+00 0.239D+00 0.301D+00
 Coeff-Com:  0.355D+00
 Coeff-En:   0.000D+00 0.000D+00 0.000D+00 0.000D+00 0.000D+00 0.183D+00
 Coeff-En:   0.817D+00
 Coeff:      0.217D-01-0.404D-01 0.781D-02 0.114D+00 0.237D+00 0.300D+00
 Coeff:      0.360D+00
 Gap=     0.121 Goal=   None    Shift=    0.000
 RMSDP=1.01D-04 MaxDP=4.83D-03 DE=-7.50D-03 OVMax= 1.15D-02

 Cycle   8  Pass 1  IDiag  1:
 RMSU=  3.46D-05    CP:  1.00D+00  6.70D-01  1.70D-01  8.58D-01  6.12D-01
                    CP:  4.48D-01  4.07D-01
 E= -7517.80957498067     Delta-E=       -0.001704705606 Rises=F Damp=F
 DIIS: error= 1.26D-04 at cycle   8 NSaved=   8.
 NSaved= 8 IEnMin= 8 EnMin= -7517.80957498067     IErMin= 8 ErrMin= 1.26D-04
 ErrMax= 1.26D-04  0.00D+00 EMaxC= 1.00D-01 BMatC= 3.10D-05 BMatP= 1.40D-03
 IDIUse=3 WtCom= 9.99D-01 WtEn= 1.26D-03
 Coeff-Com:  0.782D-02-0.153D-01 0.252D-02 0.365D-01 0.667D-01 0.947D-01
 Coeff-Com:  0.167D+00 0.640D+00
 Coeff-En:   0.000D+00 0.000D+00 0.000D+00 0.000D+00 0.000D+00 0.000D+00
 Coeff-En:   0.000D+00 0.100D+01
 Coeff:      0.781D-02-0.153D-01 0.251D-02 0.364D-01 0.666D-01 0.945D-01
 Coeff:      0.167D+00 0.640D+00
 Gap=     0.121 Goal=   None    Shift=    0.000
 RMSDP=2.03D-05 MaxDP=9.31D-04 DE=-1.70D-03 OVMax= 2.83D-03

 Cycle   9  Pass 1  IDiag  1:
 RMSU=  1.66D-05    CP:  1.00D+00  6.69D-01  1.71D-01  8.58D-01  6.07D-01
                    CP:  4.42D-01  4.61D-01  7.78D-01
 E= -7517.80958741697     Delta-E=       -0.000012436300 Rises=F Damp=F
 DIIS: error= 1.03D-04 at cycle   9 NSaved=   9.
 NSaved= 9 IEnMin= 9 EnMin= -7517.80958741697     IErMin= 9 ErrMin= 1.03D-04
 ErrMax= 1.03D-04  0.00D+00 EMaxC= 1.00D-01 BMatC= 1.69D-05 BMatP= 3.10D-05
 IDIUse=3 WtCom= 9.99D-01 WtEn= 1.03D-03
 Coeff-Com:  0.306D-02-0.626D-02 0.556D-03 0.115D-01 0.146D-01 0.254D-01
 Coeff-Com:  0.707D-01 0.478D+00 0.403D+00
 Coeff-En:   0.000D+00 0.000D+00 0.000D+00 0.000D+00 0.000D+00 0.000D+00
 Coeff-En:   0.000D+00 0.389D+00 0.611D+00
 Coeff:      0.306D-02-0.625D-02 0.556D-03 0.115D-01 0.146D-01 0.253D-01
 Coeff:      0.706D-01 0.478D+00 0.403D+00
 Gap=     0.121 Goal=   None    Shift=    0.000
 RMSDP=1.55D-05 MaxDP=6.32D-04 DE=-1.24D-05 OVMax= 1.84D-03

 Cycle  10  Pass 1  IDiag  1:
 RMSU=  8.01D-06    CP:  1.00D+00  6.69D-01  1.71D-01  8.58D-01  6.07D-01
                    CP:  4.40D-01  4.73D-01  9.04D-01  2.56D-01
 E= -7517.80960205070     Delta-E=       -0.000014633737 Rises=F Damp=F
 DIIS: error= 5.83D-05 at cycle  10 NSaved=  10.
 NSaved=10 IEnMin=10 EnMin= -7517.80960205070     IErMin=10 ErrMin= 5.83D-05
 ErrMax= 5.83D-05  0.00D+00 EMaxC= 1.00D-01 BMatC= 4.53D-06 BMatP= 1.69D-05
 IDIUse=1 WtCom= 1.00D+00 WtEn= 0.00D+00
 Coeff-Com:  0.471D-03-0.114D-02-0.388D-04-0.945D-04-0.551D-02-0.363D-02
 Coeff-Com:  0.144D-01 0.223D+00 0.340D+00 0.433D+00
 Coeff:      0.471D-03-0.114D-02-0.388D-04-0.945D-04-0.551D-02-0.363D-02
 Coeff:      0.144D-01 0.223D+00 0.340D+00 0.433D+00
 Gap=     0.121 Goal=   None    Shift=    0.000
 RMSDP=6.46D-06 MaxDP=2.61D-04 DE=-1.46D-05 OVMax= 7.48D-04

 Cycle  11  Pass 1  IDiag  1:
 RMSU=  2.23D-06    CP:  1.00D+00  6.69D-01  1.71D-01  8.58D-01  6.07D-01
                    CP:  4.42D-01  4.70D-01  8.99D-01  5.13D-01  4.73D-01
 E= -7517.80960805681     Delta-E=       -0.000006006103 Rises=F Damp=F
 DIIS: error= 1.10D-05 at cycle  11 NSaved=  11.
 NSaved=11 IEnMin=11 EnMin= -7517.80960805681     IErMin=11 ErrMin= 1.10D-05
 ErrMax= 1.10D-05  0.00D+00 EMaxC= 1.00D-01 BMatC= 2.19D-07 BMatP= 4.53D-06
 IDIUse=1 WtCom= 1.00D+00 WtEn= 0.00D+00
 Coeff-Com: -0.167D-03 0.282D-03 0.210D-04-0.172D-02-0.543D-02-0.565D-02
 Coeff-Com: -0.521D-03 0.793D-01 0.149D+00 0.248D+00 0.537D+00
 Coeff:     -0.167D-03 0.282D-03 0.210D-04-0.172D-02-0.543D-02-0.565D-02
 Coeff:     -0.521D-03 0.793D-01 0.149D+00 0.248D+00 0.537D+00
 Gap=     0.121 Goal=   None    Shift=    0.000
 RMSDP=1.30D-06 MaxDP=8.33D-05 DE=-6.01D-06 OVMax= 1.27D-04

 Cycle  12  Pass 1  IDiag  1:
 RMSU=  7.66D-07    CP:  1.00D+00  6.69D-01  1.71D-01  8.58D-01  6.07D-01
                    CP:  4.42D-01  4.71D-01  9.03D-01  4.98D-01  5.60D-01
                    CP:  7.68D-01
 E= -7517.80960826893     Delta-E=       -0.000000212125 Rises=F Damp=F
 DIIS: error= 2.01D-06 at cycle  12 NSaved=  12.
 NSaved=12 IEnMin=12 EnMin= -7517.80960826893     IErMin=12 ErrMin= 2.01D-06
 ErrMax= 2.01D-06  0.00D+00 EMaxC= 1.00D-01 BMatC= 1.05D-08 BMatP= 2.19D-07
 IDIUse=1 WtCom= 1.00D+00 WtEn= 0.00D+00
 Coeff-Com: -0.685D-04 0.122D-03 0.738D-05-0.512D-03-0.142D-02-0.176D-02
 Coeff-Com: -0.146D-02 0.138D-01 0.342D-01 0.698D-01 0.250D+00 0.637D+00
 Coeff:     -0.685D-04 0.122D-03 0.738D-05-0.512D-03-0.142D-02-0.176D-02
 Coeff:     -0.146D-02 0.138D-01 0.342D-01 0.698D-01 0.250D+00 0.637D+00
 Gap=     0.121 Goal=   None    Shift=    0.000
 RMSDP=4.02D-07 MaxDP=3.13D-05 DE=-2.12D-07 OVMax= 4.74D-05

 Cycle  13  Pass 1  IDiag  1:
 RMSU=  2.66D-07    CP:  1.00D+00  6.69D-01  1.71D-01  8.58D-01  6.07D-01
                    CP:  4.42D-01  4.70D-01  9.05D-01  5.00D-01  5.53D-01
                    CP:  8.24D-01  8.11D-01
 E= -7517.80960827923     Delta-E=       -0.000000010297 Rises=F Damp=F
 DIIS: error= 7.44D-07 at cycle  13 NSaved=  13.
 NSaved=13 IEnMin=13 EnMin= -7517.80960827923     IErMin=13 ErrMin= 7.44D-07
 ErrMax= 7.44D-07  0.00D+00 EMaxC= 1.00D-01 BMatC= 1.35D-09 BMatP= 1.05D-08
 IDIUse=1 WtCom= 1.00D+00 WtEn= 0.00D+00
 Coeff-Com: -0.200D-04 0.418D-04 0.386D-06-0.117D-03-0.285D-03-0.393D-03
 Coeff-Com: -0.660D-03-0.188D-03 0.407D-02 0.111D-01 0.622D-01 0.320D+00
 Coeff-Com:  0.604D+00
 Coeff:     -0.200D-04 0.418D-04 0.386D-06-0.117D-03-0.285D-03-0.393D-03
 Coeff:     -0.660D-03-0.188D-03 0.407D-02 0.111D-01 0.622D-01 0.320D+00
 Coeff:      0.604D+00
 Gap=     0.121 Goal=   None    Shift=    0.000
 RMSDP=1.34D-07 MaxDP=5.18D-06 DE=-1.03D-08 OVMax= 1.50D-05

 Cycle  14  Pass 1  IDiag  1:
 RMSU=  7.53D-08    CP:  1.00D+00  6.69D-01  1.71D-01  8.58D-01  6.07D-01
                    CP:  4.42D-01  4.70D-01  9.06D-01  5.01D-01  5.57D-01
                    CP:  8.29D-01  9.09D-01  8.45D-01
 E= -7517.80960828081     Delta-E=       -0.000000001579 Rises=F Damp=F
 DIIS: error= 2.62D-07 at cycle  14 NSaved=  14.
 NSaved=14 IEnMin=14 EnMin= -7517.80960828081     IErMin=14 ErrMin= 2.62D-07
 ErrMax= 2.62D-07  0.00D+00 EMaxC= 1.00D-01 BMatC= 1.84D-10 BMatP= 1.35D-09
 IDIUse=1 WtCom= 1.00D+00 WtEn= 0.00D+00
 Coeff-Com: -0.233D-05 0.710D-05-0.207D-05 0.147D-05 0.267D-04 0.132D-04
 Coeff-Com: -0.177D-03-0.208D-02-0.215D-02-0.200D-02 0.777D-02 0.113D+00
 Coeff-Com:  0.323D+00 0.562D+00
 Coeff:     -0.233D-05 0.710D-05-0.207D-05 0.147D-05 0.267D-04 0.132D-04
 Coeff:     -0.177D-03-0.208D-02-0.215D-02-0.200D-02 0.777D-02 0.113D+00
 Coeff:      0.323D+00 0.562D+00
 Gap=     0.121 Goal=   None    Shift=    0.000
 RMSDP=4.73D-08 MaxDP=2.11D-06 DE=-1.58D-09 OVMax= 7.18D-06

 Cycle  15  Pass 1  IDiag  1:
 RMSU=  2.95D-08    CP:  1.00D+00  6.69D-01  1.71D-01  8.58D-01  6.07D-01
                    CP:  4.42D-01  4.70D-01  9.06D-01  5.01D-01  5.58D-01
                    CP:  8.34D-01  9.14D-01  9.12D-01  7.48D-01
 E= -7517.80960828092     Delta-E=       -0.000000000113 Rises=F Damp=F
 DIIS: error= 8.72D-08 at cycle  15 NSaved=  15.
 NSaved=15 IEnMin=15 EnMin= -7517.80960828092     IErMin=15 ErrMin= 8.72D-08
 ErrMax= 8.72D-08  0.00D+00 EMaxC= 1.00D-01 BMatC= 1.94D-11 BMatP= 1.84D-10
 IDIUse=1 WtCom= 1.00D+00 WtEn= 0.00D+00
 Coeff-Com:  0.201D-06 0.549D-06-0.841D-06 0.118D-04 0.519D-04 0.542D-04
 Coeff-Com: -0.289D-05-0.107D-02-0.167D-02-0.267D-02-0.435D-02 0.157D-01
 Coeff-Com:  0.870D-01 0.295D+00 0.612D+00
 Coeff:      0.201D-06 0.549D-06-0.841D-06 0.118D-04 0.519D-04 0.542D-04
 Coeff:     -0.289D-05-0.107D-02-0.167D-02-0.267D-02-0.435D-02 0.157D-01
 Coeff:      0.870D-01 0.295D+00 0.612D+00
 Gap=     0.121 Goal=   None    Shift=    0.000
 RMSDP=1.95D-08 MaxDP=1.19D-06 DE=-1.13D-10 OVMax= 2.32D-06

 Cycle  16  Pass 1  IDiag  1:
 RMSU=  1.08D-08    CP:  1.00D+00  6.69D-01  1.71D-01  8.58D-01  6.07D-01
                    CP:  4.42D-01  4.70D-01  9.06D-01  5.01D-01  5.58D-01
                    CP:  8.37D-01  9.20D-01  9.20D-01  8.88D-01  7.76D-01
 E= -7517.80960828117     Delta-E=       -0.000000000253 Rises=F Damp=F
 DIIS: error= 4.01D-08 at cycle  16 NSaved=  16.
 NSaved=16 IEnMin=16 EnMin= -7517.80960828117     IErMin=16 ErrMin= 4.01D-08
 ErrMax= 4.01D-08  0.00D+00 EMaxC= 1.00D-01 BMatC= 2.66D-12 BMatP= 1.94D-11
 IDIUse=1 WtCom= 1.00D+00 WtEn= 0.00D+00
 Coeff-Com:  0.210D-06-0.316D-06-0.364D-08 0.565D-05 0.252D-04 0.251D-04
 Coeff-Com:  0.118D-04-0.284D-03-0.591D-03-0.119D-02-0.333D-02-0.594D-02
 Coeff-Com:  0.480D-03 0.677D-01 0.318D+00 0.625D+00
 Coeff:      0.210D-06-0.316D-06-0.364D-08 0.565D-05 0.252D-04 0.251D-04
 Coeff:      0.118D-04-0.284D-03-0.591D-03-0.119D-02-0.333D-02-0.594D-02
 Coeff:      0.480D-03 0.677D-01 0.318D+00 0.625D+00
 Gap=     0.121 Goal=   None    Shift=    0.000
 RMSDP=6.79D-09 MaxDP=3.26D-07 DE=-2.53D-10 OVMax= 1.12D-06

 SCF Done:  E(RPBE1PBE) =  -7517.80960828     A.U. after   16 cycles
            NFock= 16  Conv=0.68D-08     -V/T= 2.1285
 KE= 6.661921691447D+03 PE=-2.466327893837D+04 EE= 6.947515373105D+03
 Leave Link  502 at Tue Mar  6 12:18:47 2018, MaxMem=   536870912 cpu:      4927.9
 (Enter /share/apps//mg09/l601.exe)
 Copying SCF densities to generalized density rwf, IOpCl= 0 IROHF=0.

 **********************************************************************

            Population analysis using the SCF density.

 **********************************************************************

 Orbital symmetries:
       Occupied  (A) (A) (A) (A) (A) (A) (A) (A) (A) (A) (A) (A)
                 (A) (A) (A) (A) (A) (A) (A) (A) (A) (A) (A) (A)
                 (A) (A) (A) (A) (A) (A) (A) (A) (A) (A) (A) (A)
                 (A) (A) (A) (A) (A) (A) (A) (A) (A) (A) (A) (A)
                 (A) (A) (A) (A) (A) (A) (A) (A) (A) (A) (A) (A)
                 (A) (A) (A) (A) (A) (A) (A) (A) (A) (A) (A) (A)
                 (A) (A) (A) (A) (A) (A) (A) (A) (A) (A) (A) (A)
                 (A) (A) (A) (A) (A) (A) (A) (A) (A) (A) (A) (A)
                 (A) (A) (A) (A) (A) (A) (A) (A) (A) (A) (A) (A)
                 (A) (A) (A) (A) (A) (A) (A) (A)
       Virtual   (A) (A) (A) (A) (A) (A) (A) (A) (A) (A) (A) (A)
                 (A) (A) (A) (A) (A) (A) (A) (A) (A) (A) (A) (A)
                 (A) (A) (A) (A) (A) (A) (A) (A) (A) (A) (A) (A)
                 (A) (A) (A) (A) (A) (A) (A) (A) (A) (A) (A) (A)
                 (A) (A) (A) (A) (A) (A) (A) (A) (A) (A) (A) (A)
                 (A) (A) (A) (A) (A) (A) (A) (A) (A) (A) (A) (A)
                 (A) (A) (A) (A) (A) (A) (A) (A) (A) (A) (A) (A)
                 (A) (A) (A) (A) (A) (A) (A) (A) (A) (A) (A) (A)
                 (A) (A) (A) (A) (A) (A) (A) (A) (A) (A) (A) (A)
                 (A) (A) (A) (A) (A) (A) (A) (A) (A) (A) (A) (A)
                 (A) (A) (A) (A) (A) (A) (A) (A) (A) (A) (A) (A)
                 (A) (A) (A) (A) (A) (A) (A) (A) (A) (A) (A) (A)
                 (A) (A) (A) (A) (A) (A) (A) (A) (A) (A) (A) (A)
                 (A) (A) (A) (A) (A) (A) (A) (A) (A) (A) (A) (A)
                 (A) (A) (A) (A) (A) (A) (A) (A) (A) (A) (A) (A)
                 (A) (A) (A) (A) (A) (A) (A) (A) (A) (A) (A) (A)
                 (A) (A) (A) (A) (A) (A) (A) (A) (A) (A) (A) (A)
                 (A) (A) (A) (A) (A) (A) (A) (A) (A) (A) (A) (A)
                 (A) (A) (A) (A) (A) (A) (A) (A) (A) (A) (A) (A)
                 (A) (A) (A) (A) (A) (A) (A) (A) (A) (A) (A) (A)
                 (A) (A) (A) (A) (A) (A) (A) (A) (A) (A) (A) (A)
                 (A) (A) (A) (A) (A) (A) (A) (A) (A) (A) (A) (A)
                 (A) (A) (A) (A) (A) (A) (A) (A) (A) (A) (A) (A)
                 (A) (A) (A) (A) (A) (A) (A) (A) (A) (A) (A) (A)
                 (A) (A) (A) (A) (A) (A) (A) (A) (A) (A) (A) (A)
                 (A) (A) (A) (A) (A) (A) (A) (A) (A) (A) (A) (A)
                 (A) (A) (A) (A) (A) (A) (A) (A) (A) (A) (A) (A)
                 (A) (A) (A) (A)
 The electronic state is 1-A.
 Alpha  occ. eigenvalues -- -399.10360-399.09812-399.09381 -49.91896 -49.91359
 Alpha  occ. eigenvalues --  -49.90959 -44.39994 -44.39960 -44.39909 -44.39445
 Alpha  occ. eigenvalues --  -44.39414 -44.39390 -44.39033 -44.39024 -44.38983
 Alpha  occ. eigenvalues --   -6.28381  -6.27850  -6.27462  -6.02275  -6.01794
 Alpha  occ. eigenvalues --   -6.01739  -6.01087  -5.13607  -5.12963  -4.43856
 Alpha  occ. eigenvalues --   -4.43753  -4.43580  -4.43298  -4.43195  -4.43112
 Alpha  occ. eigenvalues --   -4.42889  -4.42844  -4.42708  -3.74579  -3.74392
 Alpha  occ. eigenvalues --   -3.74280  -3.74084  -3.74037  -3.73963  -3.73884
 Alpha  occ. eigenvalues --   -3.73823  -3.73628  -3.73420  -3.73185  -3.73065
 Alpha  occ. eigenvalues --   -3.46847  -3.46753  -3.46568  -3.46195  -3.46134
 Alpha  occ. eigenvalues --   -3.45904  -1.23311  -1.23287  -1.23134  -1.23050
 Alpha  occ. eigenvalues --   -1.23041  -1.22742  -1.22729  -1.22643  -1.22570
 Alpha  occ. eigenvalues --   -1.22552  -1.22355  -1.22335  -1.22249  -1.22179
 Alpha  occ. eigenvalues --   -1.22153  -1.08632  -1.08269  -1.08225  -1.08097
 Alpha  occ. eigenvalues --   -1.07959  -1.07891  -1.07807  -1.07769  -1.07676
 Alpha  occ. eigenvalues --   -1.07560  -1.07435  -1.07319  -1.07254  -1.07140
 Alpha  occ. eigenvalues --   -1.07065  -1.07009  -1.06923  -1.06735  -1.06676
 Alpha  occ. eigenvalues --   -1.06609  -1.03081  -1.03037  -1.02962  -1.02872
 Alpha  occ. eigenvalues --   -1.02784  -1.02419  -1.02397  -1.02156  -1.02146
 Alpha  occ. eigenvalues --   -1.02011  -0.66837  -0.62022  -0.59966  -0.55913
 Alpha  occ. eigenvalues --   -0.50322  -0.47434  -0.44578  -0.42270  -0.40166
 Alpha  occ. eigenvalues --   -0.29004  -0.27790  -0.26585  -0.25690  -0.24472
 Alpha  occ. eigenvalues --   -0.24091  -0.23391  -0.22974  -0.22324  -0.20537
 Alpha  occ. eigenvalues --   -0.19957
 Alpha virt. eigenvalues --   -0.07850  -0.07166  -0.06779  -0.06413  -0.05903
 Alpha virt. eigenvalues --   -0.05444  -0.05220  -0.04765  -0.04432  -0.04053
 Alpha virt. eigenvalues --   -0.03529  -0.02087  -0.01525   0.03730   0.04305
 Alpha virt. eigenvalues --    0.04692   0.06768   0.07992   0.08331   0.09284
 Alpha virt. eigenvalues --    0.09500   0.09860   0.09937   0.10043   0.11121
 Alpha virt. eigenvalues --    0.11361   0.11393   0.11611   0.12481   0.12886
 Alpha virt. eigenvalues --    0.14393   0.15346   0.16212   0.16422   0.16769
 Alpha virt. eigenvalues --    0.17663   0.19432   0.20132   0.20419   0.20769
 Alpha virt. eigenvalues --    0.21108   0.22130   0.22807   0.23949   0.24212
 Alpha virt. eigenvalues --    0.24495   0.24902   0.25509   0.26409   0.28051
 Alpha virt. eigenvalues --    0.29669   0.30301   0.30701   0.31032   0.31388
 Alpha virt. eigenvalues --    0.31719   0.32293   0.32782   0.33240   0.34169
 Alpha virt. eigenvalues --    0.34408   0.34920   0.35891   0.36630   0.37777
 Alpha virt. eigenvalues --    0.38342   0.39426   0.40904   0.41735   0.42062
 Alpha virt. eigenvalues --    0.42466   0.42686   0.43163   0.43851   0.44375
 Alpha virt. eigenvalues --    0.45387   0.46258   0.46874   0.47655   0.48805
 Alpha virt. eigenvalues --    0.48888   0.49269   0.49737   0.51735   0.52243
 Alpha virt. eigenvalues --    0.52790   0.53944   0.55420   0.55892   0.56169
 Alpha virt. eigenvalues --    0.57138   0.57831   0.58081   0.58800   0.59267
 Alpha virt. eigenvalues --    0.59499   0.59969   0.60733   0.61362   0.61852
 Alpha virt. eigenvalues --    0.63027   0.63314   0.64076   0.64375   0.65410
 Alpha virt. eigenvalues --    0.66878   0.67364   0.68298   0.68329   0.69683
 Alpha virt. eigenvalues --    0.70135   0.70759   0.71677   0.74034   0.74904
 Alpha virt. eigenvalues --    0.76424   0.76994   0.78268   0.78471   0.78852
 Alpha virt. eigenvalues --    0.80256   0.80812   0.81076   0.81879   0.83012
 Alpha virt. eigenvalues --    0.83351   0.84045   0.84618   0.85117   0.85499
 Alpha virt. eigenvalues --    0.86585   0.87125   0.88022   0.88304   0.89557
 Alpha virt. eigenvalues --    0.91504   0.91796   0.92048   0.93220   0.95124
 Alpha virt. eigenvalues --    0.95698   0.96473   0.96717   0.97973   0.98011
 Alpha virt. eigenvalues --    0.98459   0.98949   1.00072   1.01557   1.01785
 Alpha virt. eigenvalues --    1.03426   1.04807   1.05712   1.06357   1.06749
 Alpha virt. eigenvalues --    1.07746   1.08933   1.10437   1.11294   1.12112
 Alpha virt. eigenvalues --    1.12978   1.13906   1.14840   1.14961   1.17055
 Alpha virt. eigenvalues --    1.17207   1.17572   1.18833   1.19346   1.19501
 Alpha virt. eigenvalues --    1.19735   1.20216   1.20833   1.21168   1.21485
 Alpha virt. eigenvalues --    1.21901   1.22772   1.23046   1.23896   1.23975
 Alpha virt. eigenvalues --    1.24669   1.24855   1.25370   1.25990   1.26264
 Alpha virt. eigenvalues --    1.27474   1.28543   1.29085   1.29509   1.30247
 Alpha virt. eigenvalues --    1.30772   1.30949   1.31420   1.32657   1.34150
 Alpha virt. eigenvalues --    1.34585   1.35290   1.36886   1.38614   1.38947
 Alpha virt. eigenvalues --    1.39182   1.40724   1.41261   1.43491   1.43760
 Alpha virt. eigenvalues --    1.45394   1.46211   1.46533   1.47609   1.48517
 Alpha virt. eigenvalues --    1.49181   1.50339   1.51141   1.51493   1.53171
 Alpha virt. eigenvalues --    1.54254   1.54588   1.56725   1.58631   1.63153
 Alpha virt. eigenvalues --    1.64483   1.66023   1.70590   2.05149   2.08670
 Alpha virt. eigenvalues --    2.09358   2.11056   2.11986   2.14567   2.16377
 Alpha virt. eigenvalues --    2.17894   2.18628   2.19153   2.20856   2.22105
 Alpha virt. eigenvalues --    2.22789   2.23811   2.24223   2.24766   2.26193
 Alpha virt. eigenvalues --    2.27004   2.28857   2.29527   2.31235   2.31492
 Alpha virt. eigenvalues --    2.32742   2.35627   2.36708   2.37829   2.39793
 Alpha virt. eigenvalues --    2.41808   2.41900   2.43219   2.44975   2.46414
 Alpha virt. eigenvalues --    2.46780   2.48702   2.50877   2.51894   2.53951
 Alpha virt. eigenvalues --    2.56230   2.58662   2.64654   2.65648   2.66544
 Alpha virt. eigenvalues --    2.67649   2.70128   2.72727   2.74481   2.76977
 Alpha virt. eigenvalues --    2.77278   2.79010   2.79237   2.80356   2.81305
 Alpha virt. eigenvalues --    2.82459   2.83307   2.84786   2.87192   2.94458
 Alpha virt. eigenvalues --    3.22672   3.24790   3.28664   3.35667   3.38760
 Alpha virt. eigenvalues --    3.40874   3.91665   3.96744   3.97471   3.98340
 Alpha virt. eigenvalues --    4.01070   4.01948   4.03500   4.06371   4.10983
 Alpha virt. eigenvalues --    5.26780   5.32277   5.39122  35.36427  35.40116
 Alpha virt. eigenvalues --   35.41450  35.43668  35.46219  35.46928  35.50577
 Alpha virt. eigenvalues --   35.51309  35.53340  35.54733  35.60821  35.63884
 Alpha virt. eigenvalues --   35.86017  35.94703  36.03223  36.05964  36.19345
 Alpha virt. eigenvalues --   36.22235  36.96609  36.96854  36.98115  37.05832
 Alpha virt. eigenvalues --   37.07964  37.17376 113.57804 113.59206 120.21454
 Alpha virt. eigenvalues --  120.23622 120.25254 120.25343
          Condensed to atoms (all electrons):
               1          2          3          4          5          6
     1  Sn  21.351882  -0.017241   0.141378  -0.019402   0.084250   0.066045
     2  Bi  -0.017241  22.382115  -0.032353   0.163987  -0.021911   0.121193
     3  Bi   0.141378  -0.032353  22.355379  -0.025707   0.167540  -0.019409
     4  Bi  -0.019402   0.163987  -0.025707  22.243024   0.117366   0.081181
     5  Ge   0.084250  -0.021911   0.167540   0.117366  31.546705  -0.019897
     6  Ge   0.066045   0.121193  -0.019409   0.081181  -0.019897  31.560094
     7  Bi   0.138796   0.198072   0.169496  -0.022690  -0.017756   0.164760
     8  Sn   0.173194  -0.017729  -0.016986   0.168071   0.138677   0.173057
     9  Ge  -0.013815   0.170487   0.204127   0.142247   0.104497  -0.016624
               7          8          9
     1  Sn   0.138796   0.173194  -0.013815
     2  Bi   0.198072  -0.017729   0.170487
     3  Bi   0.169496  -0.016986   0.204127
     4  Bi  -0.022690   0.168071   0.142247
     5  Ge  -0.017756   0.138677   0.104497
     6  Ge   0.164760   0.173057  -0.016624
     7  Bi  22.391055  -0.016867  -0.021676
     8  Sn  -0.016867  21.433504  -0.012870
     9  Ge  -0.021676  -0.012870  31.585264
 Mulliken charges:
               1
     1  Sn   0.094913
     2  Bi   0.053379
     3  Bi   0.056534
     4  Bi   0.151924
     5  Ge  -0.099472
     6  Ge  -0.110399
     7  Bi   0.016810
     8  Sn  -0.022052
     9  Ge  -0.141637
 Sum of Mulliken charges =   0.00000
 Mulliken charges with hydrogens summed into heavy atoms:
               1
     1  Sn   0.094913
     2  Bi   0.053379
     3  Bi   0.056534
     4  Bi   0.151924
     5  Ge  -0.099472
     6  Ge  -0.110399
     7  Bi   0.016810
     8  Sn  -0.022052
     9  Ge  -0.141637
 Electronic spatial extent (au):  <R**2>=           5958.9583
 Charge=              0.0000 electrons
 Dipole moment (field-independent basis, Debye):
    X=              0.4324    Y=             -0.7573    Z=             -0.5164  Tot=              1.0135
 Quadrupole moment (field-independent basis, Debye-Ang):
   XX=           -213.6392   YY=           -216.5083   ZZ=           -223.4384
   XY=             -0.2934   XZ=             -0.4447   YZ=             -1.0012
 Traceless Quadrupole moment (field-independent basis, Debye-Ang):
   XX=              4.2228   YY=              1.3536   ZZ=             -5.5764
   XY=             -0.2934   XZ=             -0.4447   YZ=             -1.0012
 Octapole moment (field-independent basis, Debye-Ang**2):
  XXX=             41.0581  YYY=           -115.6406  ZZZ=              5.6702  XYY=             17.4714
  XXY=            -40.9364  XXZ=              7.1985  XZZ=             23.8784  YZZ=            -32.0352
  YYZ=              0.2317  XYZ=              2.6767
 Hexadecapole moment (field-independent basis, Debye-Ang**3):
 XXXX=          -3469.4392 YYYY=          -3377.8682 ZZZZ=          -2851.9633 XXXY=             38.0902
 XXXZ=            -25.5093 YYYX=             42.2895 YYYZ=             55.6789 ZZZX=              8.1599
 ZZZY=             62.8791 XXYY=          -1176.4481 XXZZ=          -1053.4996 YYZZ=          -1052.4475
 XXYZ=             30.9239 YYXZ=             -9.7939 ZZXY=              7.2231
 N-N= 3.536032265536D+03 E-N=-2.466327892152D+04  KE= 6.661921691447D+03
 No NMR shielding tensors so no spin-rotation constants.
 Leave Link  601 at Tue Mar  6 12:18:48 2018, MaxMem=   536870912 cpu:         2.1
 (Enter /share/apps//mg09/l701.exe)
 Compute integral first derivatives.
 ... and contract with generalized density number  0.
   1 Symmetry operations used in ECPInt.
 ECPInt:  NShTT=   10440 NPrTT=   41973 LenC2=    9656 LenP2D=   27461.
 LDataN:  DoStor=T MaxTD1= 9 Len=  602
 Leave Link  701 at Tue Mar  6 12:19:24 2018, MaxMem=   536870912 cpu:       141.1
 (Enter /share/apps//mg09/l702.exe)
 L702 exits ... SP integral derivatives will be done elsewhere.
 Leave Link  702 at Tue Mar  6 12:19:24 2018, MaxMem=   536870912 cpu:         0.1
 (Enter /share/apps//mg09/l703.exe)
 Compute integral first derivatives, UseDBF=F ICtDFT=           0.
 Integral derivatives from FoFJK, PRISM(SPDF).
 Calling FoFJK, ICntrl=      2127 FMM=F ISym2X=0 I1Cent= 0 IOpClX= 0 NMat=1 NMatS=1 NMatT=0.
 FoFJK:  IHMeth= 1 ICntrl=    2127 DoSepK=F KAlg= 0 I1Cent=   0 FoldK=F
 IRaf=         0 NMat=   1 IRICut=       1 DoRegI=T DoRafI=F ISym2E= 0.
 FoFCou: FMM=F IPFlag=           0 FMFlag=      100000 FMFlg1=         800
         NFxFlg=           0 DoJE=F BraDBF=F KetDBF=F FulRan=T
         wScrn=  0.000000 ICntrl=    2127 IOpCl=  0 I1Cent=           0 NGrid=           0
         NMat0=    1 NMatS0=      1 NMatT0=    0 NMatD0=    1 NMtDS0=    0 NMtDT0=    0
 Symmetry not used in FoFCou.
 Defaulting to unpruned grid for atomic number  50.
 Defaulting to unpruned grid for atomic number  50.
 Defaulting to unpruned grid for atomic number  50.
 Defaulting to unpruned grid for atomic number  50.
 Leave Link  703 at Tue Mar  6 12:23:54 2018, MaxMem=   536870912 cpu:      1066.5
 (Enter /share/apps//mg09/l716.exe)
 Dipole        = 1.70121501D-01-2.97933496D-01-2.03181621D-01
 ***** Axes restored to original set *****
 -------------------------------------------------------------------
 Center     Atomic                   Forces (Hartrees/Bohr)
 Number     Number              X              Y              Z
 -------------------------------------------------------------------
      1       50          -0.009617917    0.008884894   -0.004612175
      2       83           0.000552755   -0.008567272   -0.000857196
      3       83          -0.009452207    0.000051090    0.003658591
      4       83           0.010174357   -0.003656520    0.000083201
      5       32           0.003039393    0.010090339    0.009354289
      6       32           0.003371791   -0.004568196   -0.011250845
      7       83          -0.007424126   -0.003842212   -0.001670548
      8       50           0.009368359    0.009781570   -0.005287868
      9       32          -0.000012405   -0.008173693    0.010582551
 -------------------------------------------------------------------
 Cartesian Forces:  Max     0.011250845 RMS     0.006957637
 Force constants in Cartesian coordinates: 
                1             2             3             4             5 
      1  0.157151D+00
      2 -0.222626D-01  0.176904D+00
      3  0.120271D-01 -0.342824D-01  0.131121D+00
      4  0.463896D-02  0.179917D-02 -0.199847D-02  0.108058D+00
      5  0.507579D-02 -0.430093D-02  0.594103D-02  0.140151D-03  0.183166D+00
      6  0.501189D-03 -0.260903D-02  0.413563D-02  0.129698D-01  0.294043D-02
      7 -0.296766D-01  0.113825D-01 -0.562416D-02 -0.132260D-03  0.286740D-02
      8 -0.111202D-01 -0.320290D-01  0.307579D-01  0.375624D-02 -0.399238D-02
      9  0.211242D-01  0.117891D-01 -0.436213D-01  0.568595D-02 -0.277853D-02
     10 -0.459906D-02  0.969307D-02 -0.559032D-02 -0.462439D-01  0.256579D-02
     11  0.308135D-02  0.134494D-02  0.330397D-02 -0.354769D-01 -0.441186D-01
     12 -0.211766D-02  0.350761D-02  0.620154D-02 -0.115502D-01  0.815510D-03
     13 -0.240002D-01 -0.657650D-02 -0.180421D-01  0.517314D-02 -0.359133D-02
     14  0.129383D-01 -0.287645D-01  0.128694D-01  0.317506D-02 -0.463761D-02
     15 -0.720535D-02 -0.162053D-01 -0.320477D-01  0.175793D-03 -0.791946D-02
     16 -0.200917D-01  0.105338D-01  0.141007D-01 -0.164752D-01 -0.703381D-03
     17  0.123539D-01 -0.261442D-01 -0.148060D-01 -0.971172D-02 -0.468250D-01
     18 -0.639190D-02  0.119692D-01 -0.285082D-01  0.634196D-02 -0.215725D-02
     19 -0.289321D-01  0.110136D-01 -0.594125D-02 -0.435390D-01 -0.304062D-02
     20 -0.232364D-01 -0.587220D-01 -0.998910D-02  0.317467D-01 -0.365685D-01
     21 -0.384128D-02  0.995786D-02 -0.165317D-01 -0.160034D-01 -0.357684D-02
     22 -0.598268D-01 -0.187232D-01  0.113701D-01  0.461330D-02 -0.487999D-02
     23  0.200844D-01 -0.285016D-01  0.584458D-02  0.167257D-03 -0.436972D-02
     24 -0.952349D-02  0.709688D-02 -0.206279D-01  0.319108D-02  0.323356D-02
     25  0.533646D-02  0.314008D-02 -0.301649D-03 -0.160929D-01  0.156619D-02
     26  0.308532D-02  0.212834D-03  0.360620D-03  0.440400D-02 -0.383531D-01
     27 -0.457277D-02  0.877613D-02 -0.120950D-03  0.118750D-02  0.350156D-02
                6             7             8             9            10 
      6  0.128275D+00
      7  0.513186D-02  0.184068D+00
      8 -0.274110D-02 -0.219256D-02  0.111418D+00
      9  0.397250D-02 -0.189857D-01 -0.758435D-02  0.144399D+00
     10 -0.698010D-02 -0.570453D-02  0.335272D-02  0.732829D-02  0.233672D+00
     11 -0.604947D-02  0.680748D-03  0.642337D-02 -0.170281D-02 -0.122330D-01
     12 -0.181319D-01 -0.233947D-02 -0.578150D-03  0.413101D-02  0.104371D-03
     13 -0.236845D-02 -0.667654D-01 -0.379341D-01 -0.145309D-01 -0.443895D-01
     14 -0.921363D-03 -0.131509D-01 -0.346615D-01 -0.124115D-01  0.964713D-03
     15  0.389105D-02  0.131541D-01  0.450514D-03 -0.319027D-01 -0.653008D-02
     16  0.314149D-02  0.113954D-02  0.153937D-02  0.434199D-03 -0.358270D-01
     17  0.358091D-01  0.136104D-02  0.479632D-02  0.622017D-03  0.513083D-02
     18 -0.496365D-01  0.969415D-02 -0.241672D-02 -0.281457D-02  0.736585D-02
     19 -0.121927D-01 -0.262659D-01  0.653345D-02  0.146888D-01 -0.509949D-02
     20  0.870293D-02 -0.765673D-02 -0.215110D-01 -0.757629D-02 -0.419305D-02
     21 -0.217103D-01 -0.140417D-01 -0.226821D-01 -0.450523D-01 -0.692041D-02
     22  0.315775D-02  0.133239D-03  0.488257D-05  0.690972D-02 -0.350026D-01
     23 -0.111749D-03 -0.523221D-02  0.250954D-02  0.358086D-02 -0.104848D-01
     24  0.776451D-02  0.622278D-02 -0.429183D-03  0.477139D-02  0.624052D-02
     25 -0.336080D-02 -0.567962D-01  0.360602D-01 -0.226545D-01 -0.568054D-01
     26 -0.350197D-01  0.119406D-01 -0.329534D-01  0.160615D-01  0.520373D-02
     27 -0.585604D-01  0.678816D-02  0.522324D-02 -0.338834D-01  0.498187D-02
               11            12            13            14            15 
     11  0.167956D+00
     12 -0.152631D-01  0.152310D+00
     13  0.294618D-01  0.178598D-01  0.165287D+00
     14 -0.441374D-01 -0.204314D-01  0.223834D-01  0.190345D+00
     15 -0.112841D-01 -0.306387D-01  0.623132D-03  0.380073D-01  0.180537D+00
     16 -0.255675D-03 -0.268449D-01  0.634729D-02  0.314776D-03  0.306437D-02
     17 -0.153475D-01  0.292276D-02 -0.219713D-02  0.222329D-02 -0.397860D-02
     18 -0.590798D-02 -0.439474D-01 -0.151202D-02 -0.103838D-01 -0.718461D-02
     19  0.213996D-02  0.181808D-03  0.110229D-02 -0.698081D-02 -0.687456D-02
     20  0.516818D-02 -0.202234D-02  0.590145D-03  0.820467D-03 -0.271630D-02
     21 -0.567015D-03  0.394159D-02 -0.149328D-02 -0.551547D-02  0.152266D-02
     22  0.265737D-01 -0.162379D-01 -0.249091D-01 -0.116111D-01 -0.454225D-03
     23 -0.513108D-01  0.203542D-01 -0.569055D-03 -0.277456D-01 -0.186617D-01
     24  0.210268D-01 -0.290093D-01  0.209111D-01  0.160248D-01 -0.505385D-01
     25 -0.139721D-01  0.409441D-01 -0.178452D-01 -0.803351D-02  0.404681D-02
     26 -0.259786D-01  0.106949D-01 -0.156721D-02 -0.534423D-01  0.223078D-01
     27  0.164437D-01 -0.448571D-01 -0.144735D-02 -0.172380D-01 -0.336385D-01
               16            17            18            19            20 
     16  0.152424D+00
     17  0.140914D-01  0.148494D+00
     18 -0.245408D-01  0.550611D-02  0.212739D+00
     19 -0.654098D-01 -0.170332D-01  0.803880D-03  0.167819D+00
     20 -0.663562D-02 -0.258326D-01 -0.807954D-02  0.182917D-01  0.129540D+00
     21  0.370563D-01  0.406799D-02 -0.373540D-01  0.145770D-01  0.156669D-01
     22 -0.270226D-01 -0.563747D-02  0.104675D-01 -0.484665D-04 -0.595969D-02
     23 -0.190036D-01 -0.466785D-01  0.637761D-02 -0.799664D-02  0.279844D-02
     24 -0.111140D-01 -0.288649D-01 -0.372775D-01  0.345400D-03  0.347201D-02
     25  0.491592D-02  0.164234D-02 -0.222858D-02  0.373098D-03 -0.294705D-02
     26  0.118907D-03  0.531401D-02  0.509239D-02 -0.292741D-02  0.430677D-02
     27  0.470257D-02 -0.127839D-02 -0.601623D-02 -0.558832D-02  0.254171D-02
               21            22            23            24            25 
     21  0.114394D+00
     22 -0.375448D-02  0.136850D+00
     23  0.684603D-04  0.258466D-01  0.150388D+00
     24  0.477041D-02 -0.142962D-01 -0.254169D-01  0.119713D+00
     25 -0.557877D-02  0.521328D-02 -0.281190D-02 -0.197719D-02  0.131701D+00
     26  0.258022D-02 -0.561370D-02  0.290982D-02  0.385704D-02 -0.146443D-01
     27 -0.398016D-02  0.283776D-02  0.796474D-02  0.433632D-03 -0.888942D-02
               26            27 
     26  0.137984D+00
     27 -0.259348D-01  0.180623D+00
 Leave Link  716 at Tue Mar  6 12:23:57 2018, MaxMem=   536870912 cpu:         0.1
 (Enter /share/apps//mg09/l103.exe)

 GradGradGradGradGradGradGradGradGradGradGradGradGradGradGradGradGradGrad
 Berny optimization.
 Search for a local minimum.
 Step number   1 out of a maximum of  100
 All quantities printed in internal units (Hartrees-Bohrs-Radians)
 Second derivative matrix not updated -- first step.
 ITU=  0
     Eigenvalues ---    0.08207   0.11278   0.11813   0.13046   0.13524
     Eigenvalues ---    0.14472   0.14670   0.15225   0.16517   0.17090
     Eigenvalues ---    0.17364   0.22366   0.22591   0.23490   0.25025
     Eigenvalues ---    0.26070   0.26933   0.27922   0.28574   0.29505
     Eigenvalues ---    0.32445
 RFO step:  Lambda=-7.88973658D-03 EMin= 8.20669135D-02
 Linear search not attempted -- first point.
 TrRot=  0.000554 -0.000778  0.001093  0.000021  0.000050  0.000020
 MatCor failed.
 Variable       Old X    -DE/DX   Delta X   Delta X   Delta X     New X
                                 (Linear)    (Quad)   (Total)
    X1        2.28822  -0.00962   0.00000  -0.05568  -0.05487   2.23335
    Y1       -4.08029   0.00888   0.00000   0.05707   0.05638  -4.02390
    Z1        1.80783  -0.00461   0.00000  -0.03135  -0.03037   1.77746
    X2       -0.76437   0.00055   0.00000   0.00985   0.01024  -0.75413
    Y2        4.54319  -0.00857   0.00000  -0.06097  -0.06178   4.48141
    Z2        0.38295  -0.00086   0.00000  -0.00919  -0.00805   0.37489
    X3        3.63872  -0.00945   0.00000  -0.05307  -0.05261   3.58611
    Y3       -1.06247   0.00005   0.00000   0.01191   0.01128  -1.05118
    Z3       -2.93598   0.00366   0.00000   0.03589   0.03680  -2.89918
    X4       -4.62464   0.01017   0.00000   0.05554   0.05603  -4.56861
    Y4        0.47831  -0.00366   0.00000  -0.01556  -0.01653   0.46178
    Z4       -0.80852   0.00008   0.00000   0.00782   0.00915  -0.79937
    X5       -1.24222   0.00304   0.00000   0.01323   0.01377  -1.22845
    Y5       -3.48443   0.01009   0.00000   0.05191   0.05109  -3.43335
    Z5       -3.11322   0.00935   0.00000   0.05346   0.05461  -3.05861
    X6       -1.33730   0.00337   0.00000   0.01577   0.01652  -1.32079
    Y6        0.43603  -0.00457   0.00000  -0.02812  -0.02895   0.40708
    Z6        4.28380  -0.01125   0.00000  -0.06659  -0.06543   4.21837
    X7        3.67692  -0.00742   0.00000  -0.04865  -0.04805   3.62888
    Y7        1.53245  -0.00384   0.00000  -0.02618  -0.02681   1.50564
    Z7        2.29121  -0.00167   0.00000  -0.02142  -0.02051   2.27070
    X8       -3.36736   0.00937   0.00000   0.05802   0.05885  -3.30851
    Y8       -4.24295   0.00978   0.00000   0.06539   0.06448  -4.17847
    Z8        2.08201  -0.00529   0.00000  -0.03864  -0.03738   2.04464
    X9       -0.73152  -0.00001   0.00000  -0.00013   0.00013  -0.73139
    Y9        1.80994  -0.00817   0.00000  -0.04836  -0.04917   1.76078
    Z9       -4.47225   0.01058   0.00000   0.06005   0.06118  -4.41107
         Item               Value     Threshold  Converged?
 Maximum Force            0.011251     0.000450     NO 
 RMS     Force            0.006958     0.000300     NO 
 Maximum Displacement     0.065430     0.001800     NO 
 RMS     Displacement     0.042446     0.001200     NO 
 Predicted change in Energy=-4.136801D-03
 Lowest energy point so far.  Saving SCF results.
 GradGradGradGradGradGradGradGradGradGradGradGradGradGradGradGradGradGrad

 Leave Link  103 at Tue Mar  6 12:23:57 2018, MaxMem=   536870912 cpu:         0.5
 (Enter /share/apps//mg09/l202.exe)
                          Input orientation:                          
 ---------------------------------------------------------------------
 Center     Atomic      Atomic             Coordinates (Angstroms)
 Number     Number       Type             X           Y           Z
 ---------------------------------------------------------------------
      1         50           0        1.181837   -2.129357    0.940589
      2         83           0       -0.399070    2.371459    0.198385
      3         83           0        1.897687   -0.556263   -1.534181
      4         83           0       -2.417606    0.244365   -0.423009
      5         32           0       -0.650070   -1.816848   -1.618544
      6         32           0       -0.698931    0.215418    2.232264
      7         83           0        1.920319    0.796748    1.201602
      8         50           0       -1.750788   -2.211152    1.081975
      9         32           0       -0.387037    0.931764   -2.334239
 ---------------------------------------------------------------------
                    Distance matrix (angstroms):
                    1          2          3          4          5
     1  Sn   0.000000
     2  Bi   4.827782   0.000000
     3  Bi   3.018535   4.104683   0.000000
     4  Bi   4.522162   2.997524   4.527412   0.000000
     5  Ge   3.162706   4.572324   2.843810   2.966831   0.000000
     6  Ge   3.271648   2.979110   4.639398   3.163093   4.354448
     7  Bi   3.029121   2.977536   3.052157   4.664984   4.625042
     8  Sn   2.937170   4.858827   4.784799   2.956212   2.942764
     9  Ge   4.749350   2.913254   2.841527   2.872025   2.852415
                    6          7          8          9
     6  Ge   0.000000
     7  Bi   2.874139   0.000000
     8  Sn   2.884061   4.747505   0.000000
     9  Ge   4.632859   4.224251   4.838208   0.000000
 Stoichiometry    Bi4Ge3Sn2
 Framework group  C1[X(Bi4Ge3Sn2)]
 Deg. of freedom    21
 Full point group                 C1      NOp   1
 RotChk:  IX=0 Diff= 9.18D-03
 Largest Abelian subgroup         C1      NOp   1
 Largest concise Abelian subgroup C1      NOp   1
                         Standard orientation:                         
 ---------------------------------------------------------------------
 Center     Atomic      Atomic             Coordinates (Angstroms)
 Number     Number       Type             X           Y           Z
 ---------------------------------------------------------------------
      1         50           0        1.176637    2.129561   -0.943179
      2         83           0       -0.385505   -2.376496   -0.193089
      3         83           0        1.891563    0.567092    1.538580
      4         83           0       -2.416137   -0.257168    0.415291
      5         32           0       -0.662383    1.815857    1.610701
      6         32           0       -0.688684   -0.227837   -2.234275
      7         83           0        1.929793   -0.793769   -1.193134
      8         50           0       -1.755848    2.197076   -1.094640
      9         32           0       -0.388796   -0.929381    2.335329
 ---------------------------------------------------------------------
 Rotational constants (GHZ):      0.1041436      0.0931094      0.0816415
 Leave Link  202 at Tue Mar  6 12:23:58 2018, MaxMem=   536870912 cpu:         0.1
 (Enter /share/apps//mg09/l301.exe)
 Standard basis: def2TZVP (5D, 7F)
 Ernie: Thresh=  0.10000D-02 Tol=  0.10000D-05 Strict=F.
 There are   519 symmetry adapted cartesian basis functions of A   symmetry.
 There are   444 symmetry adapted basis functions of A   symmetry.
   444 basis functions,   963 primitive gaussians,   519 cartesian basis functions
   116 alpha electrons      116 beta electrons
       nuclear repulsion energy      3589.9434464109 Hartrees.
 IExCor= 1009 DFT=T Ex+Corr=PBE1PBE ExCW=0 ScaHFX=  0.250000
 ScaDFX=  0.750000  0.750000  1.000000  1.000000 ScalE2=  1.000000  1.000000
 IRadAn=      0 IRanWt=     -1 IRanGd=            0 ICorTp=0 IEmpDi=  4
 NAtoms=    9 NActive=    9 NUniq=    9 SFac= 1.00D+00 NAtFMM=   60 NAOKFM=F Big=F
 Integral buffers will be    131072 words long.
 Raffenetti 2 integral format.
 Two-electron integral symmetry is turned on.
 Leave Link  301 at Tue Mar  6 12:23:59 2018, MaxMem=   536870912 cpu:         0.3
 (Enter /share/apps//mg09/l302.exe)
 NPDir=0 NMtPBC=     1 NCelOv=     1 NCel=       1 NClECP=     1 NCelD=      1
         NCelK=      1 NCelE2=     1 NClLst=     1 CellRange=     0.0.
 One-electron integrals computed using PRISM.
   1 Symmetry operations used in ECPInt.
 ECPInt:  NShTT=   10440 NPrTT=   41973 LenC2=    9682 LenP2D=   27638.
 LDataN:  DoStor=T MaxTD1= 8 Len=  415
 NBasis=   444 RedAO= T EigKep=  1.05D-03  NBF=   444
 NBsUse=   444 1.00D-06 EigRej= -1.00D+00 NBFU=   444
 Precomputing XC quadrature grid using
 IXCGrd= 4 IRadAn=           0 IRanWt=          -1 IRanGd=           0 AccXCQ= 0.00D+00.
 Defaulting to unpruned grid for atomic number  50.
 Defaulting to unpruned grid for atomic number  83.
 Defaulting to unpruned grid for atomic number  83.
 Generated NRdTot=       0 NPtTot=           0 NUsed=           0 NTot=          32
 NSgBfM=   508   509   509   509   509 MxSgAt=     9 MxSgA2=     9.
 Leave Link  302 at Tue Mar  6 12:24:13 2018, MaxMem=   536870912 cpu:        56.3
 (Enter /share/apps//mg09/l303.exe)
 DipDrv:  MaxL=1.
 Leave Link  303 at Tue Mar  6 12:24:13 2018, MaxMem=   536870912 cpu:         0.3
 (Enter /share/apps//mg09/l401.exe)
 Initial guess from the checkpoint file:  "Isomer_30.chk"
 B after Tr=     0.000000    0.000000    0.000000
         Rot=    0.999995    0.001390    0.001582   -0.002394 Ang=   0.37 deg.
 Guess basis will be translated and rotated to current coordinates.
 JPrj=2 DoOrth=T DoCkMO=T.
 Generating alternative initial guess.
 ExpMin= 4.62D-02 ExpMax= 4.66D+05 ExpMxC= 4.50D+03 IAcc=2 IRadAn=         4 AccDes= 0.00D+00
 Harris functional with IExCor= 1009 and IRadAn=       4 diagonalized for initial guess.
 HarFok:  IExCor= 1009 AccDes= 0.00D+00 IRadAn=         4 IDoV= 1 UseB2=F ITyADJ=14
 ICtDFT=  3500011 ScaDFX=  1.000000  1.000000  1.000000  1.000000
 Defaulting to unpruned grid for atomic number  50.
 Defaulting to unpruned grid for atomic number  50.
 Defaulting to unpruned grid for atomic number  50.
 Defaulting to unpruned grid for atomic number  50.
 FoFCou: FMM=F IPFlag=           0 FMFlag=      100000 FMFlg1=           0
         NFxFlg=           0 DoJE=T BraDBF=F KetDBF=T FulRan=T
         wScrn=  0.000000 ICntrl=     500 IOpCl=  0 I1Cent=   200000004 NGrid=           0
         NMat0=    1 NMatS0=      1 NMatT0=    0 NMatD0=    1 NMtDS0=    0 NMtDT0=    0
 Petite list used in FoFCou.
 Harris En= -7518.61032900269    
 Leave Link  401 at Tue Mar  6 12:24:20 2018, MaxMem=   536870912 cpu:        25.8
 (Enter /share/apps//mg09/l502.exe)
 Closed shell SCF:
 Using DIIS extrapolation, IDIIS=  1040.
 Integral symmetry usage will be decided dynamically.
 IVT=     1410107 IEndB=     1410107 NGot=   536870912 MDV=   536322046
 LenX=   536322046 LenY=   536052166
 Requested convergence on RMS density matrix=1.00D-08 within 768 cycles.
 Requested convergence on MAX density matrix=1.00D-06.
 Requested convergence on             energy=1.00D-06.
 No special actions if energy rises.
 Fock matrices will be formed incrementally for  20 cycles.

 Cycle   1  Pass 1  IDiag  1:
 FoFJK:  IHMeth= 1 ICntrl=       0 DoSepK=F KAlg= 0 I1Cent=   0 FoldK=F
 IRaf= 880000000 NMat=   1 IRICut=       1 DoRegI=T DoRafI=F ISym2E= 0.
 FoFCou: FMM=F IPFlag=           0 FMFlag=      100000 FMFlg1=           0
         NFxFlg=           0 DoJE=F BraDBF=F KetDBF=F FulRan=T
         wScrn=  0.000000 ICntrl=       0 IOpCl=  0 I1Cent=           0 NGrid=           0
         NMat0=    1 NMatS0=      1 NMatT0=    0 NMatD0=    1 NMtDS0=    0 NMtDT0=    0
 Symmetry not used in FoFCou.
 Defaulting to unpruned grid for atomic number  50.
 Defaulting to unpruned grid for atomic number  50.
 Defaulting to unpruned grid for atomic number  50.
 Defaulting to unpruned grid for atomic number  50.
 E= -7517.81400341904    
 DIIS: error= 5.81D-03 at cycle   1 NSaved=   1.
 NSaved= 1 IEnMin= 1 EnMin= -7517.81400341904     IErMin= 1 ErrMin= 5.81D-03
 ErrMax= 5.81D-03  0.00D+00 EMaxC= 1.00D-01 BMatC= 8.59D-03 BMatP= 8.59D-03
 IDIUse=3 WtCom= 9.42D-01 WtEn= 5.81D-02
 Coeff-Com:  0.100D+01
 Coeff-En:   0.100D+01
 Coeff:      0.100D+01
 Gap=     7.554 Goal=   None    Shift=    0.000
 GapD=    7.554 DampG=2.000 DampE=1.000 DampFc=2.0000 IDamp=-1.
 RMSDP=1.80D-04 MaxDP=5.71D-03              OVMax= 2.00D-02

 Cycle   2  Pass 1  IDiag  1:
 RMSU=  1.80D-04    CP:  1.00D+00
 E= -7517.81401280125     Delta-E=       -0.000009382215 Rises=F Damp=F
 DIIS: error= 1.48D-03 at cycle   2 NSaved=   2.
 NSaved= 2 IEnMin= 2 EnMin= -7517.81401280125     IErMin= 2 ErrMin= 1.48D-03
 ErrMax= 1.48D-03  0.00D+00 EMaxC= 1.00D-01 BMatC= 1.56D-03 BMatP= 8.59D-03
 IDIUse=3 WtCom= 9.85D-01 WtEn= 1.48D-02
 Coeff-Com:  0.191D+00 0.809D+00
 Coeff-En:   0.497D+00 0.503D+00
 Coeff:      0.196D+00 0.804D+00
 Gap=     0.123 Goal=   None    Shift=    0.000
 RMSDP=2.09D-04 MaxDP=8.09D-03 DE=-9.38D-06 OVMax= 1.56D-02

 Cycle   3  Pass 1  IDiag  1:
 RMSU=  1.88D-04    CP:  9.99D-01  5.25D-01
 E= -7517.81210538269     Delta-E=        0.001907418557 Rises=F Damp=F
 DIIS: error= 2.23D-03 at cycle   3 NSaved=   3.
 NSaved= 3 IEnMin= 2 EnMin= -7517.81401280125     IErMin= 2 ErrMin= 1.48D-03
 ErrMax= 2.23D-03  0.00D+00 EMaxC= 1.00D-01 BMatC= 3.78D-03 BMatP= 1.56D-03
 IDIUse=3 WtCom= 1.75D-01 WtEn= 8.25D-01
 Coeff-Com:  0.539D-02 0.608D+00 0.386D+00
 Coeff-En:   0.000D+00 0.669D+00 0.331D+00
 Coeff:      0.942D-03 0.658D+00 0.341D+00
 Gap=     0.125 Goal=   None    Shift=    0.000
 RMSDP=1.15D-04 MaxDP=4.75D-03 DE= 1.91D-03 OVMax= 1.09D-02

 Cycle   4  Pass 1  IDiag  1:
 RMSU=  3.87D-05    CP:  9.99D-01  7.93D-01  4.91D-01
 E= -7517.81508359182     Delta-E=       -0.002978209121 Rises=F Damp=F
 DIIS: error= 4.04D-04 at cycle   4 NSaved=   4.
 NSaved= 4 IEnMin= 4 EnMin= -7517.81508359182     IErMin= 4 ErrMin= 4.04D-04
 ErrMax= 4.04D-04  0.00D+00 EMaxC= 1.00D-01 BMatC= 1.79D-04 BMatP= 1.56D-03
 IDIUse=3 WtCom= 9.96D-01 WtEn= 4.04D-03
 Coeff-Com: -0.991D-04 0.431D+00 0.226D+00 0.343D+00
 Coeff-En:   0.000D+00 0.808D-01 0.000D+00 0.919D+00
 Coeff:     -0.987D-04 0.430D+00 0.225D+00 0.346D+00
 Gap=     0.125 Goal=   None    Shift=    0.000
 RMSDP=3.61D-05 MaxDP=1.50D-03 DE=-2.98D-03 OVMax= 3.75D-03

 Cycle   5  Pass 1  IDiag  1:
 RMSU=  1.49D-05    CP:  9.99D-01  8.48D-01  4.41D-01  2.29D-01
 E= -7517.81522387977     Delta-E=       -0.000140287952 Rises=F Damp=F
 DIIS: error= 9.69D-05 at cycle   5 NSaved=   5.
 NSaved= 5 IEnMin= 5 EnMin= -7517.81522387977     IErMin= 5 ErrMin= 9.69D-05
 ErrMax= 9.69D-05  0.00D+00 EMaxC= 1.00D-01 BMatC= 1.59D-05 BMatP= 1.79D-04
 IDIUse=1 WtCom= 1.00D+00 WtEn= 0.00D+00
 Coeff-Com: -0.870D-03 0.228D+00 0.107D+00 0.267D+00 0.399D+00
 Coeff:     -0.870D-03 0.228D+00 0.107D+00 0.267D+00 0.399D+00
 Gap=     0.125 Goal=   None    Shift=    0.000
 RMSDP=1.10D-05 MaxDP=5.18D-04 DE=-1.40D-04 OVMax= 1.20D-03

 Cycle   6  Pass 1  IDiag  1:
 RMSU=  3.93D-06    CP:  9.99D-01  8.57D-01  4.34D-01  4.27D-01  5.66D-01
 E= -7517.81524225040     Delta-E=       -0.000018370638 Rises=F Damp=F
 DIIS: error= 1.56D-05 at cycle   6 NSaved=   6.
 NSaved= 6 IEnMin= 6 EnMin= -7517.81524225040     IErMin= 6 ErrMin= 1.56D-05
 ErrMax= 1.56D-05  0.00D+00 EMaxC= 1.00D-01 BMatC= 4.23D-07 BMatP= 1.59D-05
 IDIUse=1 WtCom= 1.00D+00 WtEn= 0.00D+00
 Coeff-Com: -0.417D-03 0.780D-01 0.363D-01 0.105D+00 0.202D+00 0.580D+00
 Coeff:     -0.417D-03 0.780D-01 0.363D-01 0.105D+00 0.202D+00 0.580D+00
 Gap=     0.125 Goal=   None    Shift=    0.000
 RMSDP=2.90D-06 MaxDP=2.03D-04 DE=-1.84D-05 OVMax= 3.87D-04

 Cycle   7  Pass 1  IDiag  1:
 RMSU=  2.38D-06    CP:  9.99D-01  8.60D-01  4.37D-01  4.19D-01  6.33D-01
                    CP:  7.76D-01
 E= -7517.81524233500     Delta-E=       -0.000000084594 Rises=F Damp=F
 DIIS: error= 1.34D-05 at cycle   7 NSaved=   7.
 NSaved= 7 IEnMin= 7 EnMin= -7517.81524233500     IErMin= 7 ErrMin= 1.34D-05
 ErrMax= 1.34D-05  0.00D+00 EMaxC= 1.00D-01 BMatC= 2.92D-07 BMatP= 4.23D-07
 IDIUse=1 WtCom= 1.00D+00 WtEn= 0.00D+00
 Coeff-Com: -0.165D-03 0.175D-01 0.850D-02 0.327D-01 0.819D-01 0.465D+00
 Coeff-Com:  0.395D+00
 Coeff:     -0.165D-03 0.175D-01 0.850D-02 0.327D-01 0.819D-01 0.465D+00
 Coeff:      0.395D+00
 Gap=     0.125 Goal=   None    Shift=    0.000
 RMSDP=1.96D-06 MaxDP=6.83D-05 DE=-8.46D-08 OVMax= 2.30D-04

 Cycle   8  Pass 1  IDiag  1:
 RMSU=  1.06D-06    CP:  9.99D-01  8.61D-01  4.38D-01  4.21D-01  6.41D-01
                    CP:  9.96D-01  4.32D-01
 E= -7517.81524263486     Delta-E=       -0.000000299866 Rises=F Damp=F
 DIIS: error= 7.34D-06 at cycle   8 NSaved=   8.
 NSaved= 8 IEnMin= 8 EnMin= -7517.81524263486     IErMin= 8 ErrMin= 7.34D-06
 ErrMax= 7.34D-06  0.00D+00 EMaxC= 1.00D-01 BMatC= 7.77D-08 BMatP= 2.92D-07
 IDIUse=1 WtCom= 1.00D+00 WtEn= 0.00D+00
 Coeff-Com:  0.826D-05-0.147D-01-0.621D-02-0.100D-01-0.301D-02 0.207D+00
 Coeff-Com:  0.355D+00 0.472D+00
 Coeff:      0.826D-05-0.147D-01-0.621D-02-0.100D-01-0.301D-02 0.207D+00
 Coeff:      0.355D+00 0.472D+00
 Gap=     0.125 Goal=   None    Shift=    0.000
 RMSDP=8.21D-07 MaxDP=5.32D-05 DE=-3.00D-07 OVMax= 1.02D-04

 Cycle   9  Pass 1  IDiag  1:
 RMSU=  3.05D-07    CP:  9.99D-01  8.61D-01  4.39D-01  4.27D-01  6.50D-01
                    CP:  1.04D+00  6.03D-01  5.08D-01
 E= -7517.81524272365     Delta-E=       -0.000000088781 Rises=F Damp=F
 DIIS: error= 1.46D-06 at cycle   9 NSaved=   9.
 NSaved= 9 IEnMin= 9 EnMin= -7517.81524272365     IErMin= 9 ErrMin= 1.46D-06
 ErrMax= 1.46D-06  0.00D+00 EMaxC= 1.00D-01 BMatC= 3.41D-09 BMatP= 7.77D-08
 IDIUse=1 WtCom= 1.00D+00 WtEn= 0.00D+00
 Coeff-Com:  0.196D-04-0.989D-02-0.416D-02-0.830D-02-0.875D-02 0.754D-01
 Coeff-Com:  0.180D+00 0.279D+00 0.496D+00
 Coeff:      0.196D-04-0.989D-02-0.416D-02-0.830D-02-0.875D-02 0.754D-01
 Coeff:      0.180D+00 0.279D+00 0.496D+00
 Gap=     0.125 Goal=   None    Shift=    0.000
 RMSDP=2.12D-07 MaxDP=1.09D-05 DE=-8.88D-08 OVMax= 3.54D-05

 Cycle  10  Pass 1  IDiag  1:
 RMSU=  1.47D-07    CP:  9.99D-01  8.62D-01  4.39D-01  4.27D-01  6.55D-01
                    CP:  1.04D+00  6.25D-01  5.70D-01  7.45D-01
 E= -7517.81524272671     Delta-E=       -0.000000003067 Rises=F Damp=F
 DIIS: error= 7.56D-07 at cycle  10 NSaved=  10.
 NSaved=10 IEnMin=10 EnMin= -7517.81524272671     IErMin=10 ErrMin= 7.56D-07
 ErrMax= 7.56D-07  0.00D+00 EMaxC= 1.00D-01 BMatC= 7.71D-10 BMatP= 3.41D-09
 IDIUse=1 WtCom= 1.00D+00 WtEn= 0.00D+00
 Coeff-Com:  0.127D-04-0.543D-02-0.225D-02-0.474D-02-0.609D-02 0.323D-01
 Coeff-Com:  0.905D-01 0.149D+00 0.358D+00 0.389D+00
 Coeff:      0.127D-04-0.543D-02-0.225D-02-0.474D-02-0.609D-02 0.323D-01
 Coeff:      0.905D-01 0.149D+00 0.358D+00 0.389D+00
 Gap=     0.125 Goal=   None    Shift=    0.000
 RMSDP=1.08D-07 MaxDP=3.67D-06 DE=-3.07D-09 OVMax= 1.44D-05

 Cycle  11  Pass 1  IDiag  1:
 RMSU=  7.46D-08    CP:  9.99D-01  8.62D-01  4.39D-01  4.27D-01  6.57D-01
                    CP:  1.04D+00  6.27D-01  5.82D-01  8.46D-01  5.44D-01
 E= -7517.81524272765     Delta-E=       -0.000000000939 Rises=F Damp=F
 DIIS: error= 4.53D-07 at cycle  11 NSaved=  11.
 NSaved=11 IEnMin=11 EnMin= -7517.81524272765     IErMin=11 ErrMin= 4.53D-07
 ErrMax= 4.53D-07  0.00D+00 EMaxC= 1.00D-01 BMatC= 2.10D-10 BMatP= 7.71D-10
 IDIUse=1 WtCom= 1.00D+00 WtEn= 0.00D+00
 Coeff-Com:  0.131D-05 0.967D-04 0.836D-04-0.640D-04-0.139D-02-0.803D-02
 Coeff-Com: -0.105D-01-0.658D-02 0.755D-01 0.356D+00 0.595D+00
 Coeff:      0.131D-05 0.967D-04 0.836D-04-0.640D-04-0.139D-02-0.803D-02
 Coeff:     -0.105D-01-0.658D-02 0.755D-01 0.356D+00 0.595D+00
 Gap=     0.125 Goal=   None    Shift=    0.000
 RMSDP=5.50D-08 MaxDP=2.17D-06 DE=-9.39D-10 OVMax= 7.58D-06

 Cycle  12  Pass 1  IDiag  1:
 RMSU=  2.22D-08    CP:  9.99D-01  8.62D-01  4.39D-01  4.27D-01  6.57D-01
                    CP:  1.05D+00  6.31D-01  5.83D-01  8.85D-01  7.77D-01
                    CP:  7.21D-01
 E= -7517.81524272762     Delta-E=        0.000000000033 Rises=F Damp=F
 DIIS: error= 7.36D-08 at cycle  12 NSaved=  12.
 NSaved=12 IEnMin=11 EnMin= -7517.81524272765     IErMin=12 ErrMin= 7.36D-08
 ErrMax= 7.36D-08  0.00D+00 EMaxC= 1.00D-01 BMatC= 1.50D-11 BMatP= 2.10D-10
 IDIUse=1 WtCom= 1.00D+00 WtEn= 0.00D+00
 Coeff-Com: -0.500D-06 0.574D-03 0.263D-03 0.424D-03-0.195D-03-0.729D-02
 Coeff-Com: -0.151D-01-0.174D-01 0.108D-01 0.176D+00 0.352D+00 0.500D+00
 Coeff:     -0.500D-06 0.574D-03 0.263D-03 0.424D-03-0.195D-03-0.729D-02
 Coeff:     -0.151D-01-0.174D-01 0.108D-01 0.176D+00 0.352D+00 0.500D+00
 Gap=     0.125 Goal=   None    Shift=    0.000
 RMSDP=1.44D-08 MaxDP=1.23D-06 DE= 3.27D-11 OVMax= 1.88D-06

 Cycle  13  Pass 1  IDiag  1:
 RMSU=  7.95D-09    CP:  9.99D-01  8.62D-01  4.39D-01  4.27D-01  6.57D-01
                    CP:  1.05D+00  6.31D-01  5.85D-01  8.98D-01  7.91D-01
                    CP:  8.04D-01  7.33D-01
 E= -7517.81524272789     Delta-E=       -0.000000000269 Rises=F Damp=F
 DIIS: error= 2.39D-08 at cycle  13 NSaved=  13.
 NSaved=13 IEnMin=13 EnMin= -7517.81524272789     IErMin=13 ErrMin= 2.39D-08
 ErrMax= 2.39D-08  0.00D+00 EMaxC= 1.00D-01 BMatC= 1.12D-12 BMatP= 1.50D-11
 IDIUse=1 WtCom= 1.00D+00 WtEn= 0.00D+00
 Coeff-Com: -0.424D-06 0.266D-03 0.114D-03 0.217D-03 0.123D-03-0.239D-02
 Coeff-Com: -0.591D-02-0.772D-02-0.843D-02 0.360D-01 0.838D-01 0.247D+00
 Coeff-Com:  0.657D+00
 Coeff:     -0.424D-06 0.266D-03 0.114D-03 0.217D-03 0.123D-03-0.239D-02
 Coeff:     -0.591D-02-0.772D-02-0.843D-02 0.360D-01 0.838D-01 0.247D+00
 Coeff:      0.657D+00
 Gap=     0.125 Goal=   None    Shift=    0.000
 RMSDP=4.69D-09 MaxDP=3.80D-07 DE=-2.69D-10 OVMax= 8.14D-07

 SCF Done:  E(RPBE1PBE) =  -7517.81524273     A.U. after   13 cycles
            NFock= 13  Conv=0.47D-08     -V/T= 2.1284
 KE= 6.662130150455D+03 PE=-2.477117574319D+04 EE= 7.001286903601D+03
 Leave Link  502 at Tue Mar  6 12:44:41 2018, MaxMem=   536870912 cpu:      4519.1
 (Enter /share/apps//mg09/l701.exe)
 Compute integral first derivatives.
 ... and contract with generalized density number  0.
   1 Symmetry operations used in ECPInt.
 ECPInt:  NShTT=   10440 NPrTT=   41973 LenC2=    9682 LenP2D=   27638.
 LDataN:  DoStor=T MaxTD1= 9 Len=  602
 Leave Link  701 at Tue Mar  6 12:45:14 2018, MaxMem=   536870912 cpu:       124.9
 (Enter /share/apps//mg09/l702.exe)
 L702 exits ... SP integral derivatives will be done elsewhere.
 Leave Link  702 at Tue Mar  6 12:45:14 2018, MaxMem=   536870912 cpu:         0.1
 (Enter /share/apps//mg09/l703.exe)
 Compute integral first derivatives, UseDBF=F ICtDFT=           0.
 Integral derivatives from FoFJK, PRISM(SPDF).
 Calling FoFJK, ICntrl=      2127 FMM=F ISym2X=0 I1Cent= 0 IOpClX= 0 NMat=1 NMatS=1 NMatT=0.
 FoFJK:  IHMeth= 1 ICntrl=    2127 DoSepK=F KAlg= 0 I1Cent=   0 FoldK=F
 IRaf=         0 NMat=   1 IRICut=       1 DoRegI=T DoRafI=F ISym2E= 0.
 FoFCou: FMM=F IPFlag=           0 FMFlag=      100000 FMFlg1=         800
         NFxFlg=           0 DoJE=F BraDBF=F KetDBF=F FulRan=T
         wScrn=  0.000000 ICntrl=    2127 IOpCl=  0 I1Cent=           0 NGrid=           0
         NMat0=    1 NMatS0=      1 NMatT0=    0 NMatD0=    1 NMtDS0=    0 NMtDT0=    0
 Symmetry not used in FoFCou.
 Defaulting to unpruned grid for atomic number  50.
 Defaulting to unpruned grid for atomic number  50.
 Defaulting to unpruned grid for atomic number  50.
 Defaulting to unpruned grid for atomic number  50.
 Leave Link  703 at Tue Mar  6 12:52:27 2018, MaxMem=   536870912 cpu:      1712.9
 (Enter /share/apps//mg09/l716.exe)
 Dipole        = 1.88319369D-01-3.40491739D-01-1.91784886D-01
 ***** Axes restored to original set *****
 -------------------------------------------------------------------
 Center     Atomic                   Forces (Hartrees/Bohr)
 Number     Number              X              Y              Z
 -------------------------------------------------------------------
      1       50          -0.005499472    0.004015047   -0.001919068
      2       83          -0.000241574   -0.001510412   -0.000337298
      3       83          -0.003383032   -0.000633198   -0.000840807
      4       83           0.002750887   -0.001387501   -0.000828919
      5       32           0.002007420    0.005742242    0.005106499
      6       32           0.002049902   -0.003095646   -0.006166682
      7       83          -0.001454378   -0.001272676    0.001937411
      8       50           0.004205989    0.003331642   -0.001826694
      9       32          -0.000435743   -0.005189498    0.004875558
 -------------------------------------------------------------------
 Cartesian Forces:  Max     0.006166682 RMS     0.003223946
 Leave Link  716 at Tue Mar  6 12:52:27 2018, MaxMem=   536870912 cpu:         0.1
 (Enter /share/apps//mg09/l103.exe)

 GradGradGradGradGradGradGradGradGradGradGradGradGradGradGradGradGradGrad
 Berny optimization.
 Search for a local minimum.
 Step number   2 out of a maximum of  100
 All quantities printed in internal units (Hartrees-Bohrs-Radians)
 Update second derivatives using D2CorN and points    1    2
 DE= -5.63D-03 DEPred=-4.14D-03 R= 1.36D+00
 TightC=F SS=  1.41D+00  RLast= 2.21D-01 DXNew= 5.0454D-01 6.6167D-01
 Trust test= 1.36D+00 RLast= 2.21D-01 DXMaxT set to 5.05D-01
 ITU=  1  0
     Eigenvalues ---    0.08004   0.09532   0.11290   0.11981   0.13140
     Eigenvalues ---    0.13573   0.14550   0.14874   0.16317   0.17091
     Eigenvalues ---    0.17279   0.22263   0.22581   0.23470   0.25026
     Eigenvalues ---    0.25965   0.26923   0.27900   0.28530   0.29502
     Eigenvalues ---    0.32428
 RFO step:  Lambda=-4.46427662D-04 EMin= 8.00427179D-02
 Quartic linear search produced a step of  0.62766.
 TrRot= -0.000044 -0.000231 -0.000004  0.000018  0.000048  0.000018
 MatCor failed.
 Variable       Old X    -DE/DX   Delta X   Delta X   Delta X     New X
                                 (Linear)    (Quad)   (Total)
    X1        2.23335  -0.00550  -0.03444  -0.00892  -0.04318   2.19017
    Y1       -4.02390   0.00402   0.03539   0.00373   0.03897  -3.98493
    Z1        1.77746  -0.00192  -0.01906  -0.00239  -0.02156   1.75589
    X2       -0.75413  -0.00024   0.00643  -0.00141   0.00483  -0.74930
    Y2        4.48141  -0.00151  -0.03878   0.01422  -0.02482   4.45659
    Z2        0.37489  -0.00034  -0.00506  -0.00086  -0.00588   0.36901
    X3        3.58611  -0.00338  -0.03302   0.00340  -0.02977   3.55634
    Y3       -1.05118  -0.00063   0.00708  -0.00299   0.00399  -1.04720
    Z3       -2.89918  -0.00084   0.02310  -0.01523   0.00770  -2.89148
    X4       -4.56861   0.00275   0.03517  -0.00773   0.02734  -4.54127
    Y4        0.46178  -0.00139  -0.01037   0.00053  -0.01023   0.45155
    Z4       -0.79937  -0.00083   0.00574  -0.00544   0.00051  -0.79886
    X5       -1.22845   0.00201   0.00864   0.00282   0.01140  -1.21706
    Y5       -3.43335   0.00574   0.03206   0.00939   0.04118  -3.39217
    Z5       -3.05861   0.00511   0.03428   0.00800   0.04233  -3.01627
    X6       -1.32079   0.00205   0.01037   0.00279   0.01330  -1.30749
    Y6        0.40708  -0.00310  -0.01817  -0.00650  -0.02495   0.38213
    Z6        4.21837  -0.00617  -0.04107  -0.00930  -0.05031   4.16806
    X7        3.62888  -0.00145  -0.03016   0.01322  -0.01692   3.61195
    Y7        1.50564  -0.00127  -0.01683   0.00020  -0.01672   1.48891
    Z7        2.27070   0.00194  -0.01287   0.02499   0.01194   2.28264
    X8       -3.30851   0.00421   0.03694   0.00383   0.04097  -3.26754
    Y8       -4.17847   0.00333   0.04047  -0.00171   0.03841  -4.14006
    Z8        2.04464  -0.00183  -0.02346  -0.00118  -0.02449   2.02015
    X9       -0.73139  -0.00044   0.00008  -0.00773  -0.00797  -0.73936
    Y9        1.76078  -0.00519  -0.03086  -0.01470  -0.04582   1.71496
    Z9       -4.41107   0.00488   0.03840   0.00133   0.03976  -4.37131
         Item               Value     Threshold  Converged?
 Maximum Force            0.006167     0.000450     NO 
[...]
     X  X  X                       XX       X                                                                                        
     X  X  X                       XX       X                                                                                        
     X     X                        X                                                                                                
     X     X                                                                                                                         
     X     X                                                                                                                         
     X     X                                                                                                                         
     X     X                                                                                                                         
     X                                                                                                                               
     X                                                                                                                               
     X                                                                                                                               
     X                                                                                                                               
     X                                                                                                                               
     X                                                                                                                               
     X                                                                                                                               
     X                                                                                                                               
 
 ***** Axes restored to original set *****
 -------------------------------------------------------------------
 Center     Atomic                   Forces (Hartrees/Bohr)
 Number     Number              X              Y              Z
 -------------------------------------------------------------------
      1       50          -0.000052090    0.000070094    0.000082007
      2       83          -0.000036340    0.000071039   -0.000009962
      3       83          -0.000014773   -0.000019951   -0.000035214
      4       83           0.000045531   -0.000017785   -0.000061808
      5       32           0.000001206   -0.000010077   -0.000035087
      6       32           0.000037806   -0.000099769    0.000047346
      7       83           0.000007857    0.000000145    0.000021064
      8       50          -0.000002146    0.000003627   -0.000066308
      9       32           0.000012950    0.000002679    0.000057963
 -------------------------------------------------------------------
 Cartesian Forces:  Max     0.000099769 RMS     0.000044011
 Force constants in Cartesian coordinates: 
                1             2             3             4             5 
      1  0.626430D-01
      2  0.486560D-02  0.592000D-01
      3 -0.998120D-03 -0.168801D-01  0.386528D-01
      4 -0.110868D-02  0.622519D-02  0.335977D-02  0.609613D-01
      5  0.424354D-03 -0.299018D-02 -0.435477D-03  0.115156D-02  0.877469D-01
      6  0.672971D-03  0.588252D-02 -0.742628D-03  0.188635D-01  0.147595D-02
      7 -0.562250D-02 -0.257890D-02  0.890208D-02 -0.248116D-02 -0.312866D-03
      8 -0.416602D-02 -0.816037D-02  0.163914D-01  0.695048D-02 -0.318191D-02
      9  0.944958D-02  0.169556D-01 -0.239194D-01  0.785888D-03 -0.961534D-03
     10 -0.301014D-02  0.673906D-03 -0.115172D-02 -0.232919D-01 -0.214718D-01
     11  0.551201D-02 -0.486153D-02 -0.125545D-02 -0.212832D-01 -0.270391D-01
     12 -0.365564D-02 -0.612282D-03 -0.358551D-02 -0.102106D-01 -0.734541D-02
     13 -0.298525D-02  0.149934D-03 -0.758896D-02 -0.267178D-02  0.610453D-03
     14  0.903974D-03 -0.306008D-02  0.225248D-02 -0.302783D-02 -0.462204D-02
     15 -0.608569D-02 -0.128970D-02 -0.764896D-02 -0.122747D-02 -0.153212D-02
     16 -0.147220D-02  0.439924D-02  0.373845D-02  0.205312D-02 -0.142344D-02
     17  0.391324D-02 -0.501993D-02 -0.216967D-02 -0.411433D-02 -0.155198D-01
     18  0.175285D-02  0.410623D-03 -0.416305D-02  0.267718D-02  0.954327D-02
     19 -0.525887D-02 -0.893524D-02 -0.382749D-02 -0.330889D-01  0.197844D-01
     20 -0.106507D-01 -0.313627D-01 -0.379956D-02  0.191167D-01 -0.190850D-01
     21 -0.286764D-02 -0.479100D-02  0.227544D-02 -0.136109D-01  0.939074D-02
     22 -0.423871D-01 -0.507314D-02  0.333129D-02  0.447998D-03  0.116431D-02
     23 -0.696924D-03  0.634846D-03  0.171726D-02 -0.338888D-02 -0.295243D-02
     24  0.172125D-02  0.103019D-02  0.137531D-02  0.681577D-03 -0.646111D-04
     25 -0.798206D-03  0.273404D-03 -0.576530D-02 -0.820098D-03  0.730160D-04
     26 -0.105501D-03 -0.438004D-02  0.417911D-02 -0.162970D-02 -0.123564D-01
     27  0.104385D-04 -0.705818D-03 -0.224404D-02 -0.131893D-02 -0.100708D-01
                6             7             8             9            10 
      6  0.429244D-01
      7 -0.269121D-03  0.808054D-01
      8 -0.482458D-02  0.909628D-03  0.419526D-01
      9 -0.231646D-02 -0.122368D-01 -0.586444D-02  0.688472D-01
     10 -0.949782D-02 -0.561685D-02 -0.390903D-03 -0.127591D-02  0.841187D-01
     11 -0.416763D-02  0.107836D-02 -0.127714D-02 -0.202733D-03  0.369558D-02
     12  0.686275D-03  0.224160D-02 -0.317812D-02 -0.322062D-03 -0.181554D-02
     13  0.215829D-02 -0.325150D-01 -0.169753D-01  0.235485D-02 -0.123134D-01
     14 -0.715361D-02 -0.155244D-01 -0.693404D-02 -0.289832D-02  0.812080D-02
     15 -0.135448D-02  0.346702D-02  0.938323D-03 -0.243145D-02  0.537328D-02
     16  0.108085D-02  0.220551D-02  0.351817D-02  0.938498D-02 -0.670341D-02
     17  0.763568D-02  0.112597D-02 -0.249700D-02 -0.417469D-03 -0.135750D-03
     18 -0.122137D-01 -0.599847D-03  0.103545D-02 -0.547568D-02 -0.389371D-02
     19 -0.148423D-01 -0.428676D-02 -0.312532D-02 -0.372438D-03 -0.535920D-02
     20  0.941063D-02 -0.205256D-02 -0.761696D-02 -0.155098D-01  0.258005D-02
     21 -0.394641D-02  0.369901D-02 -0.122218D-01 -0.273637D-01  0.120921D-02
     22  0.563218D-03 -0.249097D-02 -0.240623D-02  0.506268D-04 -0.580114D-02
     23  0.185160D-02  0.338077D-03 -0.101528D-02 -0.283189D-03  0.842509D-02
     24  0.294773D-03 -0.164923D-03  0.107635D-02 -0.215133D-02 -0.549639D-02
     25  0.127041D-02 -0.299977D-01  0.156855D-01 -0.814080D-02 -0.220227D-01
     26 -0.101106D-01  0.170166D-01 -0.112699D-01  0.918192D-02 -0.149697D-02
     27 -0.233318D-01 -0.503904D-02  0.664745D-02 -0.486713D-02  0.165486D-01
               11            12            13            14            15 
     11  0.729062D-01
     12 -0.108656D-01  0.440900D-01
     13  0.947407D-02  0.799435D-02  0.546378D-01
     14 -0.135959D-01 -0.929415D-02  0.124940D-01  0.537376D-01
     15 -0.772314D-02 -0.279407D-02 -0.711061D-02  0.975424D-02  0.504191D-01
     16 -0.186578D-02 -0.354944D-02 -0.332081D-02  0.143520D-02 -0.282469D-02
     17  0.324851D-02  0.147015D-02  0.362303D-02 -0.176671D-02 -0.522048D-02
     18 -0.151721D-02 -0.956281D-02  0.617850D-03 -0.315406D-03 -0.578722D-02
     19 -0.331145D-02 -0.363281D-02  0.151091D-02  0.659878D-03 -0.393021D-04
     20  0.355648D-02  0.195370D-02 -0.454682D-02 -0.513530D-02 -0.269586D-02
     21 -0.148407D-02 -0.148839D-02 -0.753340D-02 -0.660462D-03 -0.367633D-02
     22  0.953134D-02 -0.597457D-02 -0.526642D-02 -0.329852D-02  0.743114D-02
     23 -0.314172D-01  0.194606D-01 -0.316353D-02 -0.202028D-02  0.214586D-02
     24  0.200666D-01 -0.972656D-02  0.100814D-01  0.446309D-02 -0.204866D-01
     25 -0.283091D-02  0.186027D-01  0.292394D-02 -0.176314D-02  0.101632D-02
     26 -0.152039D-02  0.841109D-02 -0.166586D-02 -0.166032D-01  0.562288D-02
     27  0.714921D-02 -0.172969D-01 -0.973760D-03  0.385214D-02 -0.623990D-02
               16            17            18            19            20 
     16  0.455502D-01
     17  0.148642D-01  0.438058D-01
     18 -0.110604D-01  0.194726D-02  0.558257D-01
     19 -0.293707D-01 -0.910262D-02  0.932144D-02  0.804322D-01
     20 -0.934647D-02 -0.344535D-02 -0.587989D-03  0.341882D-02  0.653190D-01
     21  0.970500D-02  0.151597D-02 -0.585772D-02  0.134228D-01  0.100597D-01
     22 -0.626930D-02 -0.908728D-02 -0.223222D-02 -0.301642D-02 -0.122686D-02
     23 -0.108611D-01 -0.218056D-01 -0.761558D-02  0.933406D-03 -0.264536D-02
     24 -0.477523D-02 -0.937522D-02 -0.585834D-02 -0.756941D-03 -0.452159D-03
     25 -0.267244D-02 -0.108651D-02  0.341683D-02 -0.156234D-02  0.270784D-02
     26 -0.720024D-03  0.300013D-02 -0.290041D-02 -0.321883D-03  0.415247D-03
     27 -0.169955D-02  0.461378D-02 -0.690724D-02  0.726956D-03  0.162135D-02
               21            22            23            24            25 
     21  0.457056D-01
     22  0.160379D-02  0.642913D-01
     23  0.907597D-03  0.997425D-02  0.639658D-01
     24 -0.117710D-02 -0.404427D-02 -0.182249D-01  0.403693D-01
     25 -0.562795D-02  0.492051D-03 -0.156036D-02  0.275355D-02  0.544575D-01
     26 -0.271663D-02  0.422120D-03 -0.274453D-02  0.148064D-02 -0.114988D-01
     27 -0.447139D-02 -0.729004D-03  0.407260D-04 -0.263945D-02 -0.752572D-02
               26            27 
     26  0.454591D-01
     27 -0.131480D-01  0.679978D-01
 Leave Link  716 at Tue Mar  6 17:55:04 2018, MaxMem=   536870912 cpu:         0.1
 (Enter /share/apps//mg09/l103.exe)

 GradGradGradGradGradGradGradGradGradGradGradGradGradGradGradGradGradGrad
 Berny optimization.
 Search for a local minimum.
 Step number   1 out of a maximum of    2
 All quantities printed in internal units (Hartrees-Bohrs-Radians)
 Second derivative matrix not updated -- analytic derivatives used.
 ITU=  0
     Eigenvalues ---    0.01106   0.01610   0.02609   0.03848   0.04221
     Eigenvalues ---    0.04383   0.04639   0.05525   0.05817   0.06156
     Eigenvalues ---    0.06358   0.07044   0.08187   0.08248   0.09971
     Eigenvalues ---    0.10382   0.11948   0.12533   0.13718   0.14393
     Eigenvalues ---    0.14740
 Angle between quadratic step and forces=  42.32 degrees.
 Linear search not attempted -- first point.
 TrRot=  0.000115 -0.000068  0.000037 -0.000004  0.000020 -0.000004
 MatCor failed.
 Variable       Old X    -DE/DX   Delta X   Delta X   Delta X     New X
                                 (Linear)    (Quad)   (Total)
    X1        2.16092  -0.00005   0.00000  -0.00166  -0.00154   2.15938
    Y1       -3.95776   0.00007   0.00000   0.00337   0.00329  -3.95447
    Z1        1.74744   0.00008   0.00000   0.00504   0.00503   1.75247
    X2       -0.73937  -0.00004   0.00000  -0.00318  -0.00303  -0.74240
    Y2        4.46234   0.00007   0.00000   0.00130   0.00124   4.46358
    Z2        0.35967  -0.00001   0.00000   0.00157   0.00162   0.36128
    X3        3.57525  -0.00001   0.00000  -0.00062  -0.00057   3.57468
    Y3       -1.03970  -0.00002   0.00000  -0.00379  -0.00388  -1.04358
    Z3       -2.90964  -0.00004   0.00000  -0.00113  -0.00116  -2.91080
    X4       -4.56919   0.00005   0.00000   0.00031   0.00041  -4.56878
    Y4        0.47339  -0.00002   0.00000   0.00021   0.00018   0.47356
    Z4       -0.78819  -0.00006   0.00000  -0.00199  -0.00186  -0.79005
    X5       -1.18706   0.00000   0.00000  -0.00062  -0.00058  -1.18765
    Y5       -3.36741  -0.00001   0.00000  -0.00051  -0.00057  -3.36798
    Z5       -2.98066  -0.00004   0.00000  -0.00077  -0.00071  -2.98136
    X6       -1.28112   0.00004   0.00000   0.00386   0.00406  -1.27706
    Y6        0.34460  -0.00010   0.00000  -0.00371  -0.00376   0.34084
    Z6        4.12717   0.00005   0.00000   0.00139   0.00146   4.12862
    X7        3.62901   0.00001   0.00000   0.00045   0.00063   3.62964
    Y7        1.50081   0.00000   0.00000   0.00268   0.00259   1.50340
    Z7        2.31147   0.00002   0.00000  -0.00370  -0.00373   2.30774
    X8       -3.29393   0.00000   0.00000  -0.00146  -0.00133  -3.29526
    Y8       -4.15976   0.00000   0.00000  -0.00028  -0.00032  -4.16009
    Z8        2.01421  -0.00007   0.00000  -0.00258  -0.00248   2.01172
    X9       -0.75807   0.00001   0.00000   0.00192   0.00196  -0.75611
    Y9        1.67327   0.00000   0.00000   0.00130   0.00124   1.67450
    Z9       -4.36363   0.00006   0.00000   0.00179   0.00184  -4.36180
         Item               Value     Threshold  Converged?
 Maximum Force            0.000100     0.000450     YES
 RMS     Force            0.000044     0.000300     YES
 Maximum Displacement     0.005033     0.001800     NO 
 RMS     Displacement     0.002309     0.001200     NO 
 Predicted change in Energy=-1.003483D-06
 GradGradGradGradGradGradGradGradGradGradGradGradGradGradGradGradGradGrad

 Leave Link  103 at Tue Mar  6 17:55:04 2018, MaxMem=   536870912 cpu:         0.1
 (Enter /share/apps//mg09/l9999.exe)
 1\1\GINC-COMPUTE-0-11\Freq\RPBE1PBE\def2TZVP\Bi4Ge3Sn2\RODRIGO\06-Mar-
 2018\0\\#P Geom=AllCheck Guess=TCheck SCRF=Check GenChk RPBE1PBE/def2T
 ZVP Freq\\01Final_coords.xyz_30\\0,1\Sn,1.1435109501,-2.0943540311,0.9
 247031521\Bi,-0.3912596393,2.3613693438,0.1903265361\Bi,1.8919402914,-
 0.5501831744,-1.5397151317\Bi,-2.4179100535,0.2505053082,-0.4170900219
 \Ge,-0.6281675267,-1.7819586402,-1.577296554\Ge,-0.6779375827,0.182356
 5375,2.1840016938\Bi,1.9203905208,0.7941959258,1.2231776555\Sn,-1.7430
 702924,-2.2012521399,1.0658716204\Ge,-0.4011556678,0.8854538703,-2.309
 1359503\\Version=ES64L-G09RevD.01\State=1-A\HF=-7517.8169836\RMSD=2.93
 8e-09\RMSF=4.401e-05\ZeroPoint=0.0057964\Thermal=0.0232793\Dipole=0.17
 83201,0.3714434,0.1944537\DipoleDeriv=0.0424848,-0.1661453,0.0613738,-
 0.1491038,0.1339103,-0.064647,0.0516774,-0.0423194,0.0661842,-0.027559
 8,-0.0614349,-0.0329236,-0.0024856,0.0098056,-0.0205268,-0.0614314,0.0
 494161,-0.1115258,-0.0188519,0.0226987,-0.1411082,-0.033465,-0.0285284
 ,0.1042119,-0.0210195,0.0710814,-0.0696033,0.1010384,-0.0458304,0.0556
 891,-0.0010674,-0.0429925,0.0282472,0.0010306,0.0112162,0.0224343,-0.0
 566636,-0.0294027,0.0622192,-0.0391879,-0.0436805,0.1166677,-0.0036692
 ,0.044232,-0.0240508,-0.046409,-0.0532793,-0.0153349,-0.044009,-0.0579
 797,0.0242078,0.0567452,0.0487004,0.018016,-0.0159284,0.0935224,0.0770
 816,0.0024627,-0.0856558,-0.0086874,0.0429211,-0.0097369,0.0345929,0.1
 272429,0.2591513,-0.1442375,0.2464481,0.1886819,-0.1415036,-0.1127198,
 -0.1150641,0.0054624,-0.1053533,-0.0192798,0.0772405,0.0204079,-0.0735
 609,-0.0379698,0.0464656,-0.0575257,0.05849\Polar=384.8767401,5.282521
 9,388.2179253,-1.9862635,-11.8711787,359.8759931\PG=C01 [X(Bi4Ge3Sn2)]
 \NImag=0\\0.06264299,0.00486560,0.05919998,-0.00099812,-0.01688012,0.0
 3865281,-0.00110868,0.00622519,0.00335977,0.06096132,0.00042435,-0.002
 99018,-0.00043548,0.00115156,0.08774685,0.00067297,0.00588252,-0.00074
 263,0.01886346,0.00147595,0.04292439,-0.00562250,-0.00257890,0.0089020
 8,-0.00248116,-0.00031287,-0.00026912,0.08080539,-0.00416602,-0.008160
 37,0.01639142,0.00695048,-0.00318191,-0.00482458,0.00090963,0.04195262
 ,0.00944958,0.01695558,-0.02391937,0.00078589,-0.00096153,-0.00231646,
 -0.01223678,-0.00586444,0.06884715,-0.00301014,0.00067391,-0.00115172,
 -0.02329185,-0.02147180,-0.00949782,-0.00561685,-0.00039090,-0.0012759
 1,0.08411870,0.00551201,-0.00486153,-0.00125545,-0.02128322,-0.0270390
 6,-0.00416763,0.00107836,-0.00127714,-0.00020273,0.00369558,0.07290624
 ,-0.00365564,-0.00061228,-0.00358551,-0.01021061,-0.00734541,0.0006862
 8,0.00224160,-0.00317812,-0.00032206,-0.00181554,-0.01086556,0.0440900
 2,-0.00298525,0.00014993,-0.00758896,-0.00267178,0.00061045,0.00215829
 ,-0.03251496,-0.01697528,0.00235485,-0.01231343,0.00947407,0.00799435,
 0.05463780,0.00090397,-0.00306008,0.00225248,-0.00302783,-0.00462204,-
 0.00715361,-0.01552436,-0.00693404,-0.00289832,0.00812080,-0.01359595,
 -0.00929415,0.01249400,0.05373762,-0.00608569,-0.00128970,-0.00764896,
 -0.00122747,-0.00153212,-0.00135448,0.00346702,0.00093832,-0.00243145,
 0.00537328,-0.00772314,-0.00279407,-0.00711061,0.00975424,0.05041906,-
 0.00147220,0.00439924,0.00373845,0.00205312,-0.00142344,0.00108085,0.0
 0220551,0.00351817,0.00938498,-0.00670341,-0.00186578,-0.00354944,-0.0
 0332081,0.00143520,-0.00282469,0.04555019,0.00391324,-0.00501993,-0.00
 216967,-0.00411433,-0.01551981,0.00763568,0.00112597,-0.00249700,-0.00
 041747,-0.00013575,0.00324851,0.00147015,0.00362303,-0.00176671,-0.005
 22048,0.01486424,0.04380580,0.00175285,0.00041062,-0.00416305,0.002677
 18,0.00954327,-0.01221369,-0.00059985,0.00103545,-0.00547568,-0.003893
 71,-0.00151721,-0.00956281,0.00061785,-0.00031541,-0.00578722,-0.01106
 037,0.00194726,0.05582575,-0.00525887,-0.00893524,-0.00382749,-0.03308
 887,0.01978441,-0.01484226,-0.00428676,-0.00312532,-0.00037244,-0.0053
 5920,-0.00331145,-0.00363281,0.00151091,0.00065988,-0.00003930,-0.0293
 7066,-0.00910262,0.00932144,0.08043222,-0.01065073,-0.03136269,-0.0037
 9956,0.01911673,-0.01908504,0.00941063,-0.00205256,-0.00761696,-0.0155
 0981,0.00258005,0.00355648,0.00195370,-0.00454682,-0.00513530,-0.00269
 586,-0.00934647,-0.00344535,-0.00058799,0.00341882,0.06531896,-0.00286
 764,-0.00479100,0.00227544,-0.01361086,0.00939074,-0.00394641,0.003699
 01,-0.01222184,-0.02736368,0.00120921,-0.00148407,-0.00148839,-0.00753
 340,-0.00066046,-0.00367633,0.00970500,0.00151597,-0.00585772,0.013422
 84,0.01005970,0.04570557,-0.04238713,-0.00507314,0.00333129,0.00044800
 ,0.00116431,0.00056322,-0.00249097,-0.00240623,0.00005063,-0.00580114,
 0.00953134,-0.00597457,-0.00526642,-0.00329852,0.00743114,-0.00626930,
 -0.00908728,-0.00223222,-0.00301642,-0.00122686,0.00160379,0.06429134,
 -0.00069692,0.00063485,0.00171726,-0.00338888,-0.00295243,0.00185160,0
 .00033808,-0.00101528,-0.00028319,0.00842509,-0.03141716,0.01946058,-0
 .00316353,-0.00202028,0.00214586,-0.01086113,-0.02180564,-0.00761558,0
 .00093341,-0.00264536,0.00090760,0.00997425,0.06396583,0.00172125,0.00
 103019,0.00137531,0.00068158,-0.00006461,0.00029477,-0.00016492,0.0010
 7635,-0.00215133,-0.00549639,0.02006658,-0.00972656,0.01008138,0.00446
 309,-0.02048664,-0.00477523,-0.00937522,-0.00585834,-0.00075694,-0.000
 45216,-0.00117710,-0.00404427,-0.01822485,0.04036933,-0.00079821,0.000
 27340,-0.00576530,-0.00082010,0.00007302,0.00127041,-0.02999770,0.0156
 8547,-0.00814080,-0.02202268,-0.00283091,0.01860266,0.00292394,-0.0017
 6314,0.00101632,-0.00267244,-0.00108651,0.00341683,-0.00156234,0.00270
 784,-0.00562795,0.00049205,-0.00156036,0.00275355,0.05445748,-0.000105
 50,-0.00438004,0.00417911,-0.00162970,-0.01235638,-0.01011056,0.017016
 64,-0.01126990,0.00918192,-0.00149697,-0.00152039,0.00841109,-0.001665
 86,-0.01660321,0.00562288,-0.00072002,0.00300013,-0.00290041,-0.000321
 88,0.00041525,-0.00271663,0.00042212,-0.00274453,0.00148064,-0.0114988
 1,0.04545908,0.00001044,-0.00070582,-0.00224404,-0.00131893,-0.0100708
 1,-0.02333177,-0.00503904,0.00664745,-0.00486713,0.01654861,0.00714921
 ,-0.01729690,-0.00097376,0.00385214,-0.00623990,-0.00169955,0.00461378
 ,-0.00690724,0.00072696,0.00162135,-0.00447139,-0.00072900,0.00004073,
 -0.00263945,-0.00752572,-0.01314803,0.06799783\\0.00005209,-0.00007009
 ,-0.00008201,0.00003634,-0.00007104,0.00000996,0.00001477,0.00001995,0
 .00003521,-0.00004553,0.00001779,0.00006181,-0.00000121,0.00001008,0.0
 0003509,-0.00003781,0.00009977,-0.00004735,-0.00000786,-0.00000014,-0.
 00002106,0.00000215,-0.00000363,0.00006631,-0.00001295,-0.00000268,-0.
 00005796\\\@


 HE THAT RISETH LATE MUST TROT ALL DAY.

                  -- BENJAMIN FRANKLIN
 Job cpu time:       0 days  8 hours 32 minutes 13.3 seconds.
 File lengths (MBytes):  RWF=    299 Int=      0 D2E=      0 Chk=     16 Scr=      1
 Normal termination of Gaussian 09 at Tue Mar  6 17:55:06 2018.
