 Entering Gaussian System, Link 0=/share/apps/mg09/g09
 Initial command:
 /share/apps//mg09/l1.exe "/state/partition1/gauss_tmp/Gau-8824.inp" -scrdir="/state/partition1/gauss_tmp/"
 Entering Link 1 = /share/apps//mg09/l1.exe PID=      8826.
  
 Copyright (c) 1988,1990,1992,1993,1995,1998,2003,2009,2013,
            Gaussian, Inc.  All Rights Reserved.
  
 This is part of the Gaussian(R) 09 program.  It is based on
 the Gaussian(R) 03 system (copyright 2003, Gaussian, Inc.),
 the Gaussian(R) 98 system (copyright 1998, Gaussian, Inc.),
 the Gaussian(R) 94 system (copyright 1995, Gaussian, Inc.),
 the Gaussian 92(TM) system (copyright 1992, Gaussian, Inc.),
 the Gaussian 90(TM) system (copyright 1990, Gaussian, Inc.),
 the Gaussian 88(TM) system (copyright 1988, Gaussian, Inc.),
 the Gaussian 86(TM) system (copyright 1986, Carnegie Mellon
 University), and the Gaussian 82(TM) system (copyright 1983,
 Carnegie Mellon University). Gaussian is a federally registered
 trademark of Gaussian, Inc.
  
 This software contains proprietary and confidential information,
 including trade secrets, belonging to Gaussian, Inc.
  
 This software is provided under written license and may be
 used, copied, transmitted, or stored only in accord with that
 written license.
  
 The following legend is applicable only to US Government
 contracts under FAR:
  
                    RESTRICTED RIGHTS LEGEND
  
 Use, reproduction and disclosure by the US Government is
 subject to restrictions as set forth in subparagraphs (a)
 and (c) of the Commercial Computer Software - Restricted
 Rights clause in FAR 52.227-19.
  
 Gaussian, Inc.
 340 Quinnipiac St., Bldg. 40, Wallingford CT 06492
  
  
 ---------------------------------------------------------------
 Warning -- This program may not be used in any manner that
 competes with the business of Gaussian, Inc. or will provide
 assistance to any competitor of Gaussian, Inc.  The licensee
 of this program is prohibited from giving any competitor of
 Gaussian, Inc. access to this program.  By using this program,
 the user acknowledges that Gaussian, Inc. is engaged in the
 business of creating and licensing software in the field of
 computational chemistry and represents and warrants to the
 licensee that it is not a competitor of Gaussian, Inc. and that
 it will not use this program in any manner prohibited above.
 ---------------------------------------------------------------
  

 Cite this work as:
 Gaussian 09, Revision D.01,
 M. J. Frisch, G. W. Trucks, H. B. Schlegel, G. E. Scuseria, 
 M. A. Robb, J. R. Cheeseman, G. Scalmani, V. Barone, B. Mennucci, 
 G. A. Petersson, H. Nakatsuji, M. Caricato, X. Li, H. P. Hratchian, 
 A. F. Izmaylov, J. Bloino, G. Zheng, J. L. Sonnenberg, M. Hada, 
 M. Ehara, K. Toyota, R. Fukuda, J. Hasegawa, M. Ishida, T. Nakajima, 
 Y. Honda, O. Kitao, H. Nakai, T. Vreven, J. A. Montgomery, Jr., 
 J. E. Peralta, F. Ogliaro, M. Bearpark, J. J. Heyd, E. Brothers, 
 K. N. Kudin, V. N. Staroverov, T. Keith, R. Kobayashi, J. Normand, 
 K. Raghavachari, A. Rendell, J. C. Burant, S. S. Iyengar, J. Tomasi, 
 M. Cossi, N. Rega, J. M. Millam, M. Klene, J. E. Knox, J. B. Cross, 
 V. Bakken, C. Adamo, J. Jaramillo, R. Gomperts, R. E. Stratmann, 
 O. Yazyev, A. J. Austin, R. Cammi, C. Pomelli, J. W. Ochterski, 
 R. L. Martin, K. Morokuma, V. G. Zakrzewski, G. A. Voth, 
 P. Salvador, J. J. Dannenberg, S. Dapprich, A. D. Daniels, 
 O. Farkas, J. B. Foresman, J. V. Ortiz, J. Cioslowski, 
 and D. J. Fox, Gaussian, Inc., Wallingford CT, 2013.
 
 ******************************************
 Gaussian 09:  ES64L-G09RevD.01 24-Apr-2013
                 6-Mar-2018 
 ******************************************
 %NProcShared=4
 Will use up to    4 processors via shared memory.
 %LindaWorkers=compute-0-1
 %chk=Isomer_54.chk
 %NProc=4
 Will use up to    4 processors via shared memory.
 %mem=4GB
 SetLPE:  input flags=" -vv -opt "Tsnet.Node.lindarsharg: ssh" "
 SetLPE:    new flags=" -vv -opt "Tsnet.Node.lindarsharg: ssh"  -nodelist 'compute-0-1.local'"
 Will use up to    1 processors via Linda.
 ----------------------------------------------------------------------
 #p PBE1PBE/Def2TZVP scf=(maxcycle=768) opt=(cartesian,maxcycle=512) fr
 eq
 ----------------------------------------------------------------------
 1/6=512,10=7,14=-1,18=10,26=3,38=1/1,3;
 2/12=2,17=6,18=5,29=2,40=1/2;
 3/5=44,7=101,11=2,16=1,25=1,30=1,71=1,74=-13/1,2,3;
 4//1;
 5/5=2,7=768,38=5/2;
 6/7=2,8=2,9=2,10=2,28=1/1;
 7/7=1,29=1/1,2,3,16;
 1/6=512,10=7,14=-1,18=10,26=3/3(2);
 2/29=1/2;
 99/12=1/99;
 2/29=1/2;
 3/5=44,7=101,11=2,16=1,25=1,30=1,71=1,74=-13/1,2,3;
 4/5=5,16=3,69=1/1;
 5/5=2,7=768,38=5/2;
 7/7=1/1,2,3,16;
 1/6=512,14=-1,18=10,26=3/3(-5);
 2/29=1/2;
 6/7=2,8=2,9=2,10=2,19=2,28=1/1;
 99/9=1,12=1/99;
 Leave Link    1 at Tue Mar  6 16:05:28 2018, MaxMem=   536870912 cpu:         0.2
 (Enter /share/apps//mg09/l101.exe)
 ---------------------
 01Final_coords.xyz_54
 ---------------------
 Symbolic Z-matrix:
 Charge =  0 Multiplicity = 1
 83                   -1.5366   -1.03366  -1.5198 
 83                    2.53022   0.59351   0.005 
 83                   -1.78141   1.62465  -0.03861 
 32                    0.49492   1.06774   2.20224 
 83                   -1.55969  -0.97598   1.54596 
 32                    0.74503   2.81825  -0.02148 
 32                    0.49694   1.02602  -2.21689 
 50                    1.40537  -1.75977  -1.58327 
 50                    1.37984  -1.73007   1.61876 
 
 NAtoms=      9 NQM=        9 NQMF=       0 NMMI=      0 NMMIF=      0
                NMic=       0 NMicF=      0.
                    Isotopes and Nuclear Properties:
 (Nuclear quadrupole moments (NQMom) in fm**2, nuclear magnetic moments (NMagM)
  in nuclear magnetons)

  Atom         1           2           3           4           5           6           7           8           9
 IAtWgt=         209         209         209          74         209          74          74         118         118
 AtmWgt= 208.9804000 208.9804000 208.9804000  73.9211788 208.9804000  73.9211788  73.9211788 117.9018000 117.9018000
 NucSpn=           9           9           9           0           9           0           0           0           0
 AtZEff=   0.0000000   0.0000000   0.0000000   0.0000000   0.0000000   0.0000000   0.0000000   0.0000000   0.0000000
 NQMom=  -51.6000000 -51.6000000 -51.6000000   0.0000000 -51.6000000   0.0000000   0.0000000   0.0000000   0.0000000
 NMagM=    4.1106000   4.1106000   4.1106000   0.0000000   4.1106000   0.0000000   0.0000000   0.0000000   0.0000000
 AtZNuc=  83.0000000  83.0000000  83.0000000  32.0000000  83.0000000  32.0000000  32.0000000  50.0000000  50.0000000
 Leave Link  101 at Tue Mar  6 16:05:28 2018, MaxMem=   536870912 cpu:         0.2
 (Enter /share/apps//mg09/l103.exe)

 GradGradGradGradGradGradGradGradGradGradGradGradGradGradGradGradGradGrad
 Berny optimization.
 Initialization pass.
 No Z-matrix variables, so optimization will use Cartesian coordinates.
 Trust Radius=3.00D-01 FncErr=1.00D-07 GrdErr=1.00D-06
 Number of steps in this run=    100 maximum allowed number of steps=    100.
 GradGradGradGradGradGradGradGradGradGradGradGradGradGradGradGradGradGrad

 Leave Link  103 at Tue Mar  6 16:05:28 2018, MaxMem=   536870912 cpu:         0.1
 (Enter /share/apps//mg09/l202.exe)
 ---------------------------------------------------------------------------------------------------
                            Z-MATRIX (ANGSTROMS AND DEGREES)
   CD    Cent   Atom    N1       Length/X        N2       Alpha/Y        N3        Beta/Z          J
 ---------------------------------------------------------------------------------------------------
      1      1  Bi       0  -1.536597         -1.033657         -1.519799
      2      2  Bi       0   2.530223          0.593509          0.005000
      3      3  Bi       0  -1.781409          1.624646         -0.038614
      4      4  Ge       0   0.494916          1.067745          2.202244
      5      5  Bi       0  -1.559692         -0.975975          1.545959
      6      6  Ge       0   0.745029          2.818252         -0.021478
      7      7  Ge       0   0.496936          1.026018         -2.216889
      8      8  Sn       0   1.405366         -1.759768         -1.583266
      9      9  Sn       0   1.379838         -1.730070          1.618758
 ---------------------------------------------------------------------------------------------------
                         Z-Matrix orientation:                         
 ---------------------------------------------------------------------
 Center     Atomic      Atomic             Coordinates (Angstroms)
 Number     Number       Type             X           Y           Z
 ---------------------------------------------------------------------
      1         83           0       -1.536597   -1.033657   -1.519799
      2         83           0        2.530223    0.593509    0.005000
      3         83           0       -1.781409    1.624646   -0.038614
      4         32           0        0.494916    1.067745    2.202244
      5         83           0       -1.559692   -0.975975    1.545959
      6         32           0        0.745029    2.818252   -0.021478
      7         32           0        0.496936    1.026018   -2.216889
      8         50           0        1.405366   -1.759768   -1.583266
      9         50           0        1.379838   -1.730070    1.618758
 ---------------------------------------------------------------------
                    Distance matrix (angstroms):
                    1          2          3          4          5
     1  Bi   0.000000
     2  Bi   4.638071   0.000000
     3  Bi   3.052936   4.433432   0.000000
     4  Ge   4.732498   3.032368   3.242412   0.000000
     5  Bi   3.066388   4.643839   3.053401   2.971349   0.000000
     6  Ge   4.721015   2.852560   2.794258   2.841086   4.707946
     7  Ge   2.977155   3.042714   3.208441   4.419330   4.732517
     8  Sn   3.030909   3.053818   4.898545   4.811843   4.381546
     9  Sn   4.340636   3.053952   4.898416   2.991874   3.035588
                    6          7          8          9
     6  Ge   0.000000
     7  Ge   2.844905   0.000000
     8  Sn   4.881956   2.997887   0.000000
     9  Sn   4.876535   4.804969   3.202263   0.000000
 Stoichiometry    Bi4Ge3Sn2
 Framework group  C1[X(Bi4Ge3Sn2)]
 Deg. of freedom    21
 Full point group                 C1      NOp   1
 Largest Abelian subgroup         C1      NOp   1
 Largest concise Abelian subgroup C1      NOp   1
                         Standard orientation:                         
 ---------------------------------------------------------------------
 Center     Atomic      Atomic             Coordinates (Angstroms)
 Number     Number       Type             X           Y           Z
 ---------------------------------------------------------------------
      1         83           0       -1.536597   -1.033657   -1.519799
      2         83           0        2.530223    0.593509    0.005000
      3         83           0       -1.781409    1.624646   -0.038614
      4         32           0        0.494916    1.067745    2.202244
      5         83           0       -1.559692   -0.975975    1.545959
      6         32           0        0.745029    2.818252   -0.021478
      7         32           0        0.496936    1.026018   -2.216889
      8         50           0        1.405366   -1.759768   -1.583266
      9         50           0        1.379838   -1.730070    1.618758
 ---------------------------------------------------------------------
 Rotational constants (GHZ):      0.1047794      0.0864508      0.0835130
 Leave Link  202 at Tue Mar  6 16:05:28 2018, MaxMem=   536870912 cpu:         0.1
 (Enter /share/apps//mg09/l301.exe)
 Standard basis: def2TZVP (5D, 7F)
 Ernie: Thresh=  0.10000D-02 Tol=  0.10000D-05 Strict=F.
 There are   519 symmetry adapted cartesian basis functions of A   symmetry.
 There are   444 symmetry adapted basis functions of A   symmetry.
   444 basis functions,   963 primitive gaussians,   519 cartesian basis functions
   116 alpha electrons      116 beta electrons
       nuclear repulsion energy      3548.3094540922 Hartrees.
 IExCor= 1009 DFT=T Ex+Corr=PBE1PBE ExCW=0 ScaHFX=  0.250000
 ScaDFX=  0.750000  0.750000  1.000000  1.000000 ScalE2=  1.000000  1.000000
 IRadAn=      0 IRanWt=     -1 IRanGd=            0 ICorTp=0 IEmpDi=  4
 NAtoms=    9 NActive=    9 NUniq=    9 SFac= 1.00D+00 NAtFMM=   60 NAOKFM=F Big=F
 Integral buffers will be    131072 words long.
 Raffenetti 2 integral format.
 Two-electron integral symmetry is turned on.
 Leave Link  301 at Tue Mar  6 16:05:28 2018, MaxMem=   536870912 cpu:         0.3
 (Enter /share/apps//mg09/l302.exe)
 NPDir=0 NMtPBC=     1 NCelOv=     1 NCel=       1 NClECP=     1 NCelD=      1
         NCelK=      1 NCelE2=     1 NClLst=     1 CellRange=     0.0.
 One-electron integrals computed using PRISM.
   1 Symmetry operations used in ECPInt.
 ECPInt:  NShTT=   10440 NPrTT=   41973 LenC2=    9663 LenP2D=   27430.
 LDataN:  DoStor=T MaxTD1= 8 Len=  415
 NBasis=   444 RedAO= T EigKep=  1.36D-03  NBF=   444
 NBsUse=   444 1.00D-06 EigRej= -1.00D+00 NBFU=   444
 Precomputing XC quadrature grid using
 IXCGrd= 4 IRadAn=           0 IRanWt=          -1 IRanGd=           0 AccXCQ= 0.00D+00.
 Defaulting to unpruned grid for atomic number  83.
 Defaulting to unpruned grid for atomic number  50.
 Defaulting to unpruned grid for atomic number  83.
 Generated NRdTot=       0 NPtTot=           0 NUsed=           0 NTot=          32
 NSgBfM=   509   509   509   509   509 MxSgAt=     9 MxSgA2=     9.
 Leave Link  302 at Tue Mar  6 16:05:41 2018, MaxMem=   536870912 cpu:        39.7
 (Enter /share/apps//mg09/l303.exe)
 DipDrv:  MaxL=1.
 Leave Link  303 at Tue Mar  6 16:05:41 2018, MaxMem=   536870912 cpu:         0.2
 (Enter /share/apps//mg09/l401.exe)
 ExpMin= 4.62D-02 ExpMax= 4.66D+05 ExpMxC= 4.50D+03 IAcc=2 IRadAn=         4 AccDes= 0.00D+00
 Harris functional with IExCor= 1009 and IRadAn=       4 diagonalized for initial guess.
 HarFok:  IExCor= 1009 AccDes= 0.00D+00 IRadAn=         4 IDoV= 1 UseB2=F ITyADJ=14
 ICtDFT=  3500011 ScaDFX=  1.000000  1.000000  1.000000  1.000000
 Defaulting to unpruned grid for atomic number  83.
 Defaulting to unpruned grid for atomic number  83.
 Defaulting to unpruned grid for atomic number  83.
 Defaulting to unpruned grid for atomic number  83.
 FoFCou: FMM=F IPFlag=           0 FMFlag=      100000 FMFlg1=           0
         NFxFlg=           0 DoJE=T BraDBF=F KetDBF=T FulRan=T
         wScrn=  0.000000 ICntrl=     500 IOpCl=  0 I1Cent=   200000004 NGrid=           0
         NMat0=    1 NMatS0=      1 NMatT0=    0 NMatD0=    1 NMtDS0=    0 NMtDT0=    0
 Petite list used in FoFCou.
 Harris En= -7518.59687401179    
 JPrj=0 DoOrth=F DoCkMO=F.
 Leave Link  401 at Tue Mar  6 16:05:45 2018, MaxMem=   536870912 cpu:        12.5
 (Enter /share/apps//mg09/l502.exe)
 Closed shell SCF:
 Using DIIS extrapolation, IDIIS=  1040.
 Integral symmetry usage will be decided dynamically.
 IVT=     1410107 IEndB=     1410107 NGot=   536870912 MDV=   536322046
 LenX=   536322046 LenY=   536052166
 Requested convergence on RMS density matrix=1.00D-08 within 768 cycles.
 Requested convergence on MAX density matrix=1.00D-06.
 Requested convergence on             energy=1.00D-06.
 No special actions if energy rises.
 Fock matrices will be formed incrementally for  20 cycles.

 Cycle   1  Pass 1  IDiag  1:
 FoFJK:  IHMeth= 1 ICntrl=       0 DoSepK=F KAlg= 0 I1Cent=   0 FoldK=F
 IRaf= 880000000 NMat=   1 IRICut=       1 DoRegI=T DoRafI=F ISym2E= 0.
 FoFCou: FMM=F IPFlag=           0 FMFlag=      100000 FMFlg1=           0
         NFxFlg=           0 DoJE=F BraDBF=F KetDBF=F FulRan=T
         wScrn=  0.000000 ICntrl=       0 IOpCl=  0 I1Cent=           0 NGrid=           0
         NMat0=    1 NMatS0=      1 NMatT0=    0 NMatD0=    1 NMtDS0=    0 NMtDT0=    0
 Symmetry not used in FoFCou.
 Defaulting to unpruned grid for atomic number  83.
 Defaulting to unpruned grid for atomic number  83.
 Defaulting to unpruned grid for atomic number  83.
 Defaulting to unpruned grid for atomic number  83.
 E= -7517.25210865566    
 DIIS: error= 3.58D-02 at cycle   1 NSaved=   1.
 NSaved= 1 IEnMin= 1 EnMin= -7517.25210865566     IErMin= 1 ErrMin= 3.58D-02
 ErrMax= 3.58D-02  0.00D+00 EMaxC= 1.00D-01 BMatC= 1.45D+00 BMatP= 1.45D+00
 IDIUse=3 WtCom= 6.42D-01 WtEn= 3.58D-01
 Coeff-Com:  0.100D+01
 Coeff-En:   0.100D+01
 Coeff:      0.100D+01
 Gap=     0.138 Goal=   None    Shift=    0.000
 GapD=    0.138 DampG=1.000 DampE=0.500 DampFc=0.5000 IDamp=-1.
 Damping current iteration by 5.00D-01
 RMSDP=4.90D-03 MaxDP=2.20D-01              OVMax= 4.62D-01

 Cycle   2  Pass 1  IDiag  1:
 RMSU=  2.45D-03    CP:  1.00D+00
 E= -7517.29449681491     Delta-E=       -0.042388159256 Rises=F Damp=T
 DIIS: error= 1.25D-02 at cycle   2 NSaved=   2.
 NSaved= 2 IEnMin= 2 EnMin= -7517.29449681491     IErMin= 2 ErrMin= 1.25D-02
 ErrMax= 1.25D-02  0.00D+00 EMaxC= 1.00D-01 BMatC= 1.97D-01 BMatP= 1.45D+00
 IDIUse=3 WtCom= 8.75D-01 WtEn= 1.25D-01
 Coeff-Com:  0.802D-01 0.920D+00
 Coeff-En:   0.465D+00 0.535D+00
 Coeff:      0.128D+00 0.872D+00
 Gap=     0.199 Goal=   None    Shift=    0.000
 RMSDP=3.04D-03 MaxDP=1.06D-01 DE=-4.24D-02 OVMax= 5.46D-01

 Cycle   3  Pass 1  IDiag  1:
 RMSU=  2.52D-03    CP:  1.01D+00  3.05D-01
 E= -7516.66993992612     Delta-E=        0.624556888795 Rises=F Damp=F
 DIIS: error= 3.78D-02 at cycle   3 NSaved=   3.
 NSaved= 3 IEnMin= 2 EnMin= -7517.29449681491     IErMin= 2 ErrMin= 1.25D-02
 ErrMax= 3.78D-02  0.00D+00 EMaxC= 1.00D-01 BMatC= 8.68D-01 BMatP= 1.97D-01
 IDIUse=2 WtCom= 0.00D+00 WtEn= 1.00D+00
 EnCoef did     8 forward-backward iterations
 Coeff-En:   0.189D+00 0.591D+00 0.220D+00
 Coeff:      0.189D+00 0.591D+00 0.220D+00
 Gap=     0.183 Goal=   None    Shift=    0.000
 RMSDP=2.82D-03 MaxDP=1.05D-01 DE= 6.25D-01 OVMax= 3.34D-01

 Cycle   4  Pass 1  IDiag  1:
 RMSU=  8.78D-04    CP:  1.01D+00  9.30D-01  1.29D-01
 E= -7517.74041991013     Delta-E=       -1.070479984010 Rises=F Damp=F
 DIIS: error= 6.87D-03 at cycle   4 NSaved=   4.
 NSaved= 4 IEnMin= 4 EnMin= -7517.74041991013     IErMin= 4 ErrMin= 6.87D-03
 ErrMax= 6.87D-03  0.00D+00 EMaxC= 1.00D-01 BMatC= 6.22D-02 BMatP= 1.97D-01
 IDIUse=3 WtCom= 9.31D-01 WtEn= 6.87D-02
 Coeff-Com:  0.103D+00 0.224D-01 0.125D+00 0.750D+00
 Coeff-En:   0.000D+00 0.000D+00 0.809D-01 0.919D+00
 Coeff:      0.959D-01 0.208D-01 0.122D+00 0.761D+00
 Gap=     0.114 Goal=   None    Shift=    0.000
 RMSDP=9.85D-04 MaxDP=5.44D-02 DE=-1.07D+00 OVMax= 1.11D-01

 Cycle   5  Pass 1  IDiag  1:
 RMSU=  6.66D-04    CP:  1.00D+00  7.10D-01  2.68D-01  6.76D-01
 E= -7517.76424299221     Delta-E=       -0.023823082089 Rises=F Damp=F
 DIIS: error= 7.52D-03 at cycle   5 NSaved=   5.
 NSaved= 5 IEnMin= 5 EnMin= -7517.76424299221     IErMin= 4 ErrMin= 6.87D-03
 ErrMax= 7.52D-03  0.00D+00 EMaxC= 1.00D-01 BMatC= 3.28D-02 BMatP= 6.22D-02
 IDIUse=3 WtCom= 9.25D-01 WtEn= 7.52D-02
 Coeff-Com:  0.847D-01-0.135D+00 0.228D-01 0.609D+00 0.419D+00
 Coeff-En:   0.000D+00 0.000D+00 0.000D+00 0.401D+00 0.599D+00
 Coeff:      0.784D-01-0.125D+00 0.211D-01 0.593D+00 0.432D+00
 Gap=     0.123 Goal=   None    Shift=    0.000
 RMSDP=6.12D-04 MaxDP=2.57D-02 DE=-2.38D-02 OVMax= 8.39D-02

 Cycle   6  Pass 1  IDiag  1:
 RMSU=  3.12D-04    CP:  1.00D+00  7.09D-01  2.06D-01  8.99D-01  3.09D-01
 E= -7517.79198631801     Delta-E=       -0.027743325791 Rises=F Damp=F
 DIIS: error= 3.37D-03 at cycle   6 NSaved=   6.
 NSaved= 6 IEnMin= 6 EnMin= -7517.79198631801     IErMin= 6 ErrMin= 3.37D-03
 ErrMax= 3.37D-03  0.00D+00 EMaxC= 1.00D-01 BMatC= 8.09D-03 BMatP= 3.28D-02
 IDIUse=3 WtCom= 9.66D-01 WtEn= 3.37D-02
 Coeff-Com:  0.546D-01-0.107D+00 0.647D-02 0.404D+00 0.348D+00 0.294D+00
 Coeff-En:   0.000D+00 0.000D+00 0.000D+00 0.000D+00 0.262D+00 0.738D+00
 Coeff:      0.527D-01-0.103D+00 0.625D-02 0.390D+00 0.345D+00 0.309D+00
 Gap=     0.117 Goal=   None    Shift=    0.000
 RMSDP=2.79D-04 MaxDP=1.18D-02 DE=-2.77D-02 OVMax= 3.87D-02

 Cycle   7  Pass 1  IDiag  1:
 RMSU=  8.73D-05    CP:  1.00D+00  7.24D-01  1.88D-01  8.74D-01  4.87D-01
                    CP:  2.66D-01
 E= -7517.80203370921     Delta-E=       -0.010047391201 Rises=F Damp=F
 DIIS: error= 9.72D-04 at cycle   7 NSaved=   7.
 NSaved= 7 IEnMin= 7 EnMin= -7517.80203370921     IErMin= 7 ErrMin= 9.72D-04
 ErrMax= 9.72D-04  0.00D+00 EMaxC= 1.00D-01 BMatC= 6.33D-04 BMatP= 8.09D-03
 IDIUse=3 WtCom= 9.90D-01 WtEn= 9.72D-03
 Coeff-Com:  0.206D-01-0.449D-01 0.370D-02 0.143D+00 0.150D+00 0.221D+00
 Coeff-Com:  0.506D+00
 Coeff-En:   0.000D+00 0.000D+00 0.000D+00 0.000D+00 0.000D+00 0.968D-01
 Coeff-En:   0.903D+00
 Coeff:      0.204D-01-0.445D-01 0.367D-02 0.142D+00 0.149D+00 0.220D+00
 Coeff:      0.510D+00
 Gap=     0.117 Goal=   None    Shift=    0.000
 RMSDP=8.06D-05 MaxDP=3.59D-03 DE=-1.00D-02 OVMax= 1.02D-02

 Cycle   8  Pass 1  IDiag  1:
 RMSU=  3.59D-05    CP:  1.00D+00  7.17D-01  2.06D-01  8.86D-01  4.67D-01
                    CP:  3.89D-01  6.46D-01
 E= -7517.80286572056     Delta-E=       -0.000832011352 Rises=F Damp=F
 DIIS: error= 1.66D-04 at cycle   8 NSaved=   8.
 NSaved= 8 IEnMin= 8 EnMin= -7517.80286572056     IErMin= 8 ErrMin= 1.66D-04
 ErrMax= 1.66D-04  0.00D+00 EMaxC= 1.00D-01 BMatC= 2.49D-05 BMatP= 6.33D-04
 IDIUse=3 WtCom= 9.98D-01 WtEn= 1.66D-03
 Coeff-Com:  0.767D-02-0.172D-01 0.110D-02 0.489D-01 0.492D-01 0.812D-01
 Coeff-Com:  0.247D+00 0.582D+00
 Coeff-En:   0.000D+00 0.000D+00 0.000D+00 0.000D+00 0.000D+00 0.000D+00
 Coeff-En:   0.000D+00 0.100D+01
 Coeff:      0.766D-02-0.171D-01 0.110D-02 0.489D-01 0.491D-01 0.811D-01
 Coeff:      0.246D+00 0.583D+00
 Gap=     0.117 Goal=   None    Shift=    0.000
 RMSDP=1.92D-05 MaxDP=9.79D-04 DE=-8.32D-04 OVMax= 2.09D-03

 Cycle   9  Pass 1  IDiag  1:
 RMSU=  1.32D-05    CP:  1.00D+00  7.18D-01  2.05D-01  8.84D-01  4.68D-01
                    CP:  3.90D-01  7.03D-01  6.55D-01
 E= -7517.80288671648     Delta-E=       -0.000020995918 Rises=F Damp=F
 DIIS: error= 6.22D-05 at cycle   9 NSaved=   9.
 NSaved= 9 IEnMin= 9 EnMin= -7517.80288671648     IErMin= 9 ErrMin= 6.22D-05
 ErrMax= 6.22D-05  0.00D+00 EMaxC= 1.00D-01 BMatC= 7.09D-06 BMatP= 2.49D-05
 IDIUse=1 WtCom= 1.00D+00 WtEn= 0.00D+00
 Coeff-Com:  0.289D-03-0.791D-03-0.110D-03-0.181D-02-0.258D-02 0.363D-02
 Coeff-Com:  0.551D-01 0.379D+00 0.567D+00
 Coeff:      0.289D-03-0.791D-03-0.110D-03-0.181D-02-0.258D-02 0.363D-02
 Coeff:      0.551D-01 0.379D+00 0.567D+00
 Gap=     0.117 Goal=   None    Shift=    0.000
 RMSDP=8.32D-06 MaxDP=7.05D-04 DE=-2.10D-05 OVMax= 8.74D-04

 Cycle  10  Pass 1  IDiag  1:
 RMSU=  3.08D-06    CP:  1.00D+00  7.17D-01  2.05D-01  8.86D-01  4.68D-01
                    CP:  3.89D-01  7.17D-01  8.12D-01  6.65D-01
 E= -7517.80289364510     Delta-E=       -0.000006928622 Rises=F Damp=F
 DIIS: error= 1.70D-05 at cycle  10 NSaved=  10.
 NSaved=10 IEnMin=10 EnMin= -7517.80289364510     IErMin=10 ErrMin= 1.70D-05
 ErrMax= 1.70D-05  0.00D+00 EMaxC= 1.00D-01 BMatC= 4.25D-07 BMatP= 7.09D-06
 IDIUse=1 WtCom= 1.00D+00 WtEn= 0.00D+00
 Coeff-Com: -0.149D-03 0.221D-03-0.108D-03-0.296D-02-0.336D-02-0.146D-02
 Coeff-Com:  0.203D-01 0.188D+00 0.330D+00 0.469D+00
 Coeff:     -0.149D-03 0.221D-03-0.108D-03-0.296D-02-0.336D-02-0.146D-02
 Coeff:      0.203D-01 0.188D+00 0.330D+00 0.469D+00
 Gap=     0.117 Goal=   None    Shift=    0.000
 RMSDP=2.39D-06 MaxDP=8.59D-05 DE=-6.93D-06 OVMax= 3.22D-04

 Cycle  11  Pass 1  IDiag  1:
 RMSU=  1.88D-06    CP:  1.00D+00  7.17D-01  2.05D-01  8.86D-01  4.69D-01
                    CP:  3.90D-01  7.16D-01  8.18D-01  6.92D-01  5.70D-01
 E= -7517.80289380635     Delta-E=       -0.000000161250 Rises=F Damp=F
 DIIS: error= 1.91D-05 at cycle  11 NSaved=  11.
 NSaved=11 IEnMin=11 EnMin= -7517.80289380635     IErMin=10 ErrMin= 1.70D-05
 ErrMax= 1.91D-05  0.00D+00 EMaxC= 1.00D-01 BMatC= 2.07D-07 BMatP= 4.25D-07
 IDIUse=1 WtCom= 1.00D+00 WtEn= 0.00D+00
 Coeff-Com: -0.180D-03 0.323D-03-0.644D-04-0.226D-02-0.244D-02-0.180D-02
 Coeff-Com:  0.889D-02 0.951D-01 0.188D+00 0.380D+00 0.335D+00
 Coeff:     -0.180D-03 0.323D-03-0.644D-04-0.226D-02-0.244D-02-0.180D-02
 Coeff:      0.889D-02 0.951D-01 0.188D+00 0.380D+00 0.335D+00
 Gap=     0.117 Goal=   None    Shift=    0.000
 RMSDP=1.42D-06 MaxDP=5.53D-05 DE=-1.61D-07 OVMax= 2.04D-04

 Cycle  12  Pass 1  IDiag  1:
 RMSU=  7.19D-07    CP:  1.00D+00  7.17D-01  2.05D-01  8.86D-01  4.69D-01
                    CP:  3.90D-01  7.17D-01  8.19D-01  6.97D-01  7.65D-01
                    CP:  4.40D-01
 E= -7517.80289404951     Delta-E=       -0.000000243166 Rises=F Damp=F
 DIIS: error= 5.15D-06 at cycle  12 NSaved=  12.
 NSaved=12 IEnMin=12 EnMin= -7517.80289404951     IErMin=12 ErrMin= 5.15D-06
 ErrMax= 5.15D-06  0.00D+00 EMaxC= 1.00D-01 BMatC= 2.23D-08 BMatP= 2.07D-07
 IDIUse=1 WtCom= 1.00D+00 WtEn= 0.00D+00
 Coeff-Com: -0.987D-04 0.187D-03-0.567D-05-0.881D-03-0.901D-03-0.906D-03
 Coeff-Com:  0.132D-02 0.117D-01 0.425D-01 0.132D+00 0.248D+00 0.567D+00
 Coeff:     -0.987D-04 0.187D-03-0.567D-05-0.881D-03-0.901D-03-0.906D-03
 Coeff:      0.132D-02 0.117D-01 0.425D-01 0.132D+00 0.248D+00 0.567D+00
 Gap=     0.117 Goal=   None    Shift=    0.000
 RMSDP=4.87D-07 MaxDP=1.87D-05 DE=-2.43D-07 OVMax= 7.09D-05

 Cycle  13  Pass 1  IDiag  1:
 RMSU=  2.51D-07    CP:  1.00D+00  7.17D-01  2.05D-01  8.86D-01  4.69D-01
                    CP:  3.90D-01  7.19D-01  8.20D-01  7.10D-01  7.66D-01
                    CP:  5.96D-01  7.99D-01
 E= -7517.80289407679     Delta-E=       -0.000000027281 Rises=F Damp=F
 DIIS: error= 1.66D-06 at cycle  13 NSaved=  13.
 NSaved=13 IEnMin=13 EnMin= -7517.80289407679     IErMin=13 ErrMin= 1.66D-06
 ErrMax= 1.66D-06  0.00D+00 EMaxC= 1.00D-01 BMatC= 2.56D-09 BMatP= 2.23D-08
 IDIUse=1 WtCom= 1.00D+00 WtEn= 0.00D+00
 Coeff-Com: -0.228D-04 0.419D-04 0.801D-05-0.115D-03-0.147D-03-0.249D-03
 Coeff-Com: -0.104D-02-0.114D-01-0.885D-02 0.103D-01 0.903D-01 0.336D+00
 Coeff-Com:  0.585D+00
 Coeff:     -0.228D-04 0.419D-04 0.801D-05-0.115D-03-0.147D-03-0.249D-03
 Coeff:     -0.104D-02-0.114D-01-0.885D-02 0.103D-01 0.903D-01 0.336D+00
 Coeff:      0.585D+00
 Gap=     0.117 Goal=   None    Shift=    0.000
 RMSDP=1.78D-07 MaxDP=9.79D-06 DE=-2.73D-08 OVMax= 2.52D-05

 Cycle  14  Pass 1  IDiag  1:
 RMSU=  1.09D-07    CP:  1.00D+00  7.17D-01  2.05D-01  8.86D-01  4.69D-01
                    CP:  3.90D-01  7.19D-01  8.20D-01  7.14D-01  7.78D-01
                    CP:  6.12D-01  9.13D-01  7.28D-01
 E= -7517.80289407863     Delta-E=       -0.000000001834 Rises=F Damp=F
 DIIS: error= 4.35D-07 at cycle  14 NSaved=  14.
 NSaved=14 IEnMin=14 EnMin= -7517.80289407863     IErMin=14 ErrMin= 4.35D-07
 ErrMax= 4.35D-07  0.00D+00 EMaxC= 1.00D-01 BMatC= 2.61D-10 BMatP= 2.56D-09
 IDIUse=1 WtCom= 1.00D+00 WtEn= 0.00D+00
 Coeff-Com: -0.701D-05 0.142D-04 0.362D-05-0.322D-04-0.523D-04-0.448D-04
 Coeff-Com: -0.573D-03-0.546D-02-0.724D-02-0.669D-02 0.185D-01 0.101D+00
 Coeff-Com:  0.295D+00 0.606D+00
 Coeff:     -0.701D-05 0.142D-04 0.362D-05-0.322D-04-0.523D-04-0.448D-04
 Coeff:     -0.573D-03-0.546D-02-0.724D-02-0.669D-02 0.185D-01 0.101D+00
 Coeff:      0.295D+00 0.606D+00
 Gap=     0.117 Goal=   None    Shift=    0.000
 RMSDP=7.78D-08 MaxDP=5.05D-06 DE=-1.83D-09 OVMax= 9.92D-06

 Cycle  15  Pass 1  IDiag  1:
 RMSU=  3.42D-08    CP:  1.00D+00  7.17D-01  2.05D-01  8.86D-01  4.69D-01
                    CP:  3.90D-01  7.20D-01  8.21D-01  7.15D-01  7.83D-01
                    CP:  6.17D-01  9.14D-01  8.31D-01  7.98D-01
 E= -7517.80289407940     Delta-E=       -0.000000000771 Rises=F Damp=F
 DIIS: error= 1.38D-07 at cycle  15 NSaved=  15.
 NSaved=15 IEnMin=15 EnMin= -7517.80289407940     IErMin=15 ErrMin= 1.38D-07
 ErrMax= 1.38D-07  0.00D+00 EMaxC= 1.00D-01 BMatC= 2.17D-11 BMatP= 2.61D-10
 IDIUse=1 WtCom= 1.00D+00 WtEn= 0.00D+00
 Coeff-Com:  0.393D-05-0.722D-05-0.100D-05 0.305D-04 0.261D-04 0.291D-04
 Coeff-Com: -0.131D-03-0.105D-02-0.241D-02-0.507D-02-0.488D-02-0.325D-02
 Coeff-Com:  0.404D-01 0.254D+00 0.722D+00
 Coeff:      0.393D-05-0.722D-05-0.100D-05 0.305D-04 0.261D-04 0.291D-04
 Coeff:     -0.131D-03-0.105D-02-0.241D-02-0.507D-02-0.488D-02-0.325D-02
 Coeff:      0.404D-01 0.254D+00 0.722D+00
 Gap=     0.117 Goal=   None    Shift=    0.000
 RMSDP=2.14D-08 MaxDP=8.47D-07 DE=-7.71D-10 OVMax= 4.02D-06

 Cycle  16  Pass 1  IDiag  1:
 RMSU=  9.31D-09    CP:  1.00D+00  7.17D-01  2.05D-01  8.86D-01  4.69D-01
                    CP:  3.90D-01  7.20D-01  8.21D-01  7.15D-01  7.85D-01
                    CP:  6.21D-01  9.26D-01  8.32D-01  8.95D-01  9.72D-01
 E= -7517.80289407944     Delta-E=       -0.000000000036 Rises=F Damp=F
 DIIS: error= 2.62D-08 at cycle  16 NSaved=  16.
 NSaved=16 IEnMin=16 EnMin= -7517.80289407944     IErMin=16 ErrMin= 2.62D-08
 ErrMax= 2.62D-08  0.00D+00 EMaxC= 1.00D-01 BMatC= 9.32D-13 BMatP= 2.17D-11
 IDIUse=1 WtCom= 1.00D+00 WtEn= 0.00D+00
 Coeff-Com:  0.152D-05-0.292D-05-0.378D-06 0.102D-04 0.960D-05 0.964D-05
 Coeff-Com: -0.617D-06 0.406D-04-0.163D-03-0.884D-03-0.275D-02-0.805D-02
 Coeff-Com: -0.436D-02 0.397D-01 0.235D+00 0.741D+00
 Coeff:      0.152D-05-0.292D-05-0.378D-06 0.102D-04 0.960D-05 0.964D-05
 Coeff:     -0.617D-06 0.406D-04-0.163D-03-0.884D-03-0.275D-02-0.805D-02
 Coeff:     -0.436D-02 0.397D-01 0.235D+00 0.741D+00
 Gap=     0.117 Goal=   None    Shift=    0.000
 RMSDP=5.33D-09 MaxDP=1.92D-07 DE=-3.64D-11 OVMax= 1.27D-06

 SCF Done:  E(RPBE1PBE) =  -7517.80289408     A.U. after   16 cycles
            NFock= 16  Conv=0.53D-08     -V/T= 2.1285
 KE= 6.661934419175D+03 PE=-2.468762319032D+04 EE= 6.959576422977D+03
 Leave Link  502 at Tue Mar  6 16:21:12 2018, MaxMem=   536870912 cpu:      3369.3
 (Enter /share/apps//mg09/l601.exe)
 Copying SCF densities to generalized density rwf, IOpCl= 0 IROHF=0.

 **********************************************************************

            Population analysis using the SCF density.

 **********************************************************************

 Orbital symmetries:
       Occupied  (A) (A) (A) (A) (A) (A) (A) (A) (A) (A) (A) (A)
                 (A) (A) (A) (A) (A) (A) (A) (A) (A) (A) (A) (A)
                 (A) (A) (A) (A) (A) (A) (A) (A) (A) (A) (A) (A)
                 (A) (A) (A) (A) (A) (A) (A) (A) (A) (A) (A) (A)
                 (A) (A) (A) (A) (A) (A) (A) (A) (A) (A) (A) (A)
                 (A) (A) (A) (A) (A) (A) (A) (A) (A) (A) (A) (A)
                 (A) (A) (A) (A) (A) (A) (A) (A) (A) (A) (A) (A)
                 (A) (A) (A) (A) (A) (A) (A) (A) (A) (A) (A) (A)
                 (A) (A) (A) (A) (A) (A) (A) (A) (A) (A) (A) (A)
                 (A) (A) (A) (A) (A) (A) (A) (A)
       Virtual   (A) (A) (A) (A) (A) (A) (A) (A) (A) (A) (A) (A)
                 (A) (A) (A) (A) (A) (A) (A) (A) (A) (A) (A) (A)
                 (A) (A) (A) (A) (A) (A) (A) (A) (A) (A) (A) (A)
                 (A) (A) (A) (A) (A) (A) (A) (A) (A) (A) (A) (A)
                 (A) (A) (A) (A) (A) (A) (A) (A) (A) (A) (A) (A)
                 (A) (A) (A) (A) (A) (A) (A) (A) (A) (A) (A) (A)
                 (A) (A) (A) (A) (A) (A) (A) (A) (A) (A) (A) (A)
                 (A) (A) (A) (A) (A) (A) (A) (A) (A) (A) (A) (A)
                 (A) (A) (A) (A) (A) (A) (A) (A) (A) (A) (A) (A)
                 (A) (A) (A) (A) (A) (A) (A) (A) (A) (A) (A) (A)
                 (A) (A) (A) (A) (A) (A) (A) (A) (A) (A) (A) (A)
                 (A) (A) (A) (A) (A) (A) (A) (A) (A) (A) (A) (A)
                 (A) (A) (A) (A) (A) (A) (A) (A) (A) (A) (A) (A)
                 (A) (A) (A) (A) (A) (A) (A) (A) (A) (A) (A) (A)
                 (A) (A) (A) (A) (A) (A) (A) (A) (A) (A) (A) (A)
                 (A) (A) (A) (A) (A) (A) (A) (A) (A) (A) (A) (A)
                 (A) (A) (A) (A) (A) (A) (A) (A) (A) (A) (A) (A)
                 (A) (A) (A) (A) (A) (A) (A) (A) (A) (A) (A) (A)
                 (A) (A) (A) (A) (A) (A) (A) (A) (A) (A) (A) (A)
                 (A) (A) (A) (A) (A) (A) (A) (A) (A) (A) (A) (A)
                 (A) (A) (A) (A) (A) (A) (A) (A) (A) (A) (A) (A)
                 (A) (A) (A) (A) (A) (A) (A) (A) (A) (A) (A) (A)
                 (A) (A) (A) (A) (A) (A) (A) (A) (A) (A) (A) (A)
                 (A) (A) (A) (A) (A) (A) (A) (A) (A) (A) (A) (A)
                 (A) (A) (A) (A) (A) (A) (A) (A) (A) (A) (A) (A)
                 (A) (A) (A) (A) (A) (A) (A) (A) (A) (A) (A) (A)
                 (A) (A) (A) (A) (A) (A) (A) (A) (A) (A) (A) (A)
                 (A) (A) (A) (A)
 The electronic state is 1-A.
 Alpha  occ. eigenvalues -- -399.10291-399.10264-399.09659 -49.91823 -49.91796
 Alpha  occ. eigenvalues --  -49.91263 -44.39924 -44.39897 -44.39868 -44.39851
 Alpha  occ. eigenvalues --  -44.39842 -44.39824 -44.39328 -44.39321 -44.39293
 Alpha  occ. eigenvalues --   -6.28311  -6.28284  -6.27780  -6.02914  -6.01805
 Alpha  occ. eigenvalues --   -6.01766  -6.01669  -5.12636  -5.12625  -4.43801
 Alpha  occ. eigenvalues --   -4.43775  -4.43612  -4.43588  -4.43563  -4.43535
 Alpha  occ. eigenvalues --   -4.43196  -4.43143  -4.43063  -3.75186  -3.75135
 Alpha  occ. eigenvalues --   -3.74853  -3.74119  -3.74081  -3.73984  -3.73937
 Alpha  occ. eigenvalues --   -3.73874  -3.73864  -3.73718  -3.73691  -3.73685
 Alpha  occ. eigenvalues --   -3.45884  -3.45874  -3.45761  -3.45754  -3.45605
 Alpha  occ. eigenvalues --   -3.45590  -1.23230  -1.23204  -1.23170  -1.23146
 Alpha  occ. eigenvalues --   -1.23136  -1.23108  -1.23008  -1.22979  -1.22975
 Alpha  occ. eigenvalues --   -1.22949  -1.22642  -1.22623  -1.22616  -1.22503
 Alpha  occ. eigenvalues --   -1.22499  -1.09111  -1.09089  -1.08717  -1.08556
 Alpha  occ. eigenvalues --   -1.08546  -1.08184  -1.07754  -1.07650  -1.07589
 Alpha  occ. eigenvalues --   -1.07577  -1.07570  -1.07472  -1.07460  -1.07419
 Alpha  occ. eigenvalues --   -1.07398  -1.07374  -1.07290  -1.07276  -1.07192
 Alpha  occ. eigenvalues --   -1.07136  -1.02129  -1.02100  -1.02064  -1.02057
 Alpha  occ. eigenvalues --   -1.02045  -1.01883  -1.01837  -1.01794  -1.01708
 Alpha  occ. eigenvalues --   -1.01598  -0.67284  -0.62161  -0.58615  -0.58485
 Alpha  occ. eigenvalues --   -0.48550  -0.47898  -0.46123  -0.41180  -0.39989
 Alpha  occ. eigenvalues --   -0.29592  -0.27316  -0.26623  -0.26162  -0.25103
 Alpha  occ. eigenvalues --   -0.25072  -0.23170  -0.22755  -0.22330  -0.20089
 Alpha  occ. eigenvalues --   -0.19350
 Alpha virt. eigenvalues --   -0.07656  -0.07523  -0.07193  -0.06669  -0.06142
 Alpha virt. eigenvalues --   -0.05824  -0.05109  -0.04862  -0.04529  -0.03846
 Alpha virt. eigenvalues --   -0.03409  -0.01911  -0.01465   0.03656   0.04615
 Alpha virt. eigenvalues --    0.05090   0.06446   0.08028   0.08913   0.09130
 Alpha virt. eigenvalues --    0.09189   0.09690   0.10026   0.10361   0.10452
 Alpha virt. eigenvalues --    0.10948   0.11448   0.11974   0.12733   0.13199
 Alpha virt. eigenvalues --    0.13475   0.15843   0.17131   0.17171   0.17398
 Alpha virt. eigenvalues --    0.17604   0.18706   0.19070   0.19198   0.19968
 Alpha virt. eigenvalues --    0.20648   0.20841   0.22531   0.23469   0.24098
 Alpha virt. eigenvalues --    0.24604   0.24819   0.26237   0.27012   0.29107
 Alpha virt. eigenvalues --    0.29297   0.29906   0.30322   0.30878   0.31224
 Alpha virt. eigenvalues --    0.31587   0.32092   0.32775   0.33869   0.34140
 Alpha virt. eigenvalues --    0.34329   0.35092   0.35573   0.36568   0.37626
 Alpha virt. eigenvalues --    0.38052   0.40242   0.40427   0.41498   0.41579
 Alpha virt. eigenvalues --    0.42114   0.43251   0.43283   0.43977   0.45237
 Alpha virt. eigenvalues --    0.45755   0.45838   0.47053   0.47513   0.48386
 Alpha virt. eigenvalues --    0.48680   0.48910   0.49341   0.50766   0.50882
 Alpha virt. eigenvalues --    0.50993   0.53676   0.55380   0.55431   0.55947
 Alpha virt. eigenvalues --    0.56603   0.57654   0.58604   0.59183   0.59771
 Alpha virt. eigenvalues --    0.59816   0.60621   0.60842   0.61766   0.61960
 Alpha virt. eigenvalues --    0.62250   0.63064   0.63222   0.65292   0.66158
 Alpha virt. eigenvalues --    0.66505   0.67679   0.67729   0.69233   0.69693
 Alpha virt. eigenvalues --    0.70190   0.72572   0.73342   0.74283   0.74342
 Alpha virt. eigenvalues --    0.75462   0.76289   0.76877   0.77090   0.77798
 Alpha virt. eigenvalues --    0.78970   0.79258   0.80307   0.81113   0.81438
 Alpha virt. eigenvalues --    0.82586   0.83474   0.83863   0.84088   0.85959
 Alpha virt. eigenvalues --    0.86682   0.88153   0.88318   0.89959   0.90080
 Alpha virt. eigenvalues --    0.90794   0.91235   0.91920   0.92510   0.93417
 Alpha virt. eigenvalues --    0.94511   0.94823   0.95074   0.97382   0.97485
 Alpha virt. eigenvalues --    0.97830   0.99022   1.00950   1.01409   1.01633
 Alpha virt. eigenvalues --    1.02817   1.02981   1.04319   1.05364   1.06709
 Alpha virt. eigenvalues --    1.07755   1.09239   1.09441   1.09666   1.12683
 Alpha virt. eigenvalues --    1.12804   1.13680   1.14334   1.15836   1.15964
 Alpha virt. eigenvalues --    1.18435   1.18887   1.19107   1.20154   1.20250
 Alpha virt. eigenvalues --    1.20678   1.20804   1.21559   1.22276   1.22417
 Alpha virt. eigenvalues --    1.22793   1.22864   1.23447   1.23548   1.24586
 Alpha virt. eigenvalues --    1.25199   1.25684   1.25860   1.27335   1.27398
 Alpha virt. eigenvalues --    1.27806   1.27990   1.29123   1.29290   1.29899
 Alpha virt. eigenvalues --    1.30375   1.31647   1.32017   1.33030   1.33709
 Alpha virt. eigenvalues --    1.34002   1.35058   1.36488   1.36611   1.38363
 Alpha virt. eigenvalues --    1.40769   1.41048   1.41894   1.42587   1.43296
 Alpha virt. eigenvalues --    1.43465   1.44318   1.44946   1.46842   1.47356
 Alpha virt. eigenvalues --    1.50147   1.50627   1.50761   1.52751   1.53282
 Alpha virt. eigenvalues --    1.54977   1.56356   1.58494   1.59264   1.61036
 Alpha virt. eigenvalues --    1.63812   1.68693   1.69274   1.99704   2.08999
 Alpha virt. eigenvalues --    2.11057   2.12019   2.12106   2.12991   2.17036
 Alpha virt. eigenvalues --    2.17282   2.17448   2.18888   2.19079   2.22628
 Alpha virt. eigenvalues --    2.22919   2.23263   2.23315   2.24265   2.26747
 Alpha virt. eigenvalues --    2.28120   2.30589   2.31329   2.32222   2.32663
 Alpha virt. eigenvalues --    2.33907   2.35345   2.35608   2.37084   2.38149
 Alpha virt. eigenvalues --    2.40862   2.41814   2.42031   2.42892   2.45451
 Alpha virt. eigenvalues --    2.46493   2.47607   2.50152   2.55184   2.57991
 Alpha virt. eigenvalues --    2.59405   2.60226   2.63256   2.65287   2.66176
 Alpha virt. eigenvalues --    2.68092   2.68220   2.71632   2.72789   2.75960
 Alpha virt. eigenvalues --    2.76492   2.77466   2.78633   2.80229   2.81093
 Alpha virt. eigenvalues --    2.82268   2.83222   2.86039   2.93947   2.96202
 Alpha virt. eigenvalues --    3.18600   3.24693   3.31015   3.35729   3.39526
 Alpha virt. eigenvalues --    3.42264   3.91588   3.95442   3.97658   4.00383
 Alpha virt. eigenvalues --    4.01098   4.01646   4.05441   4.09605   4.10716
 Alpha virt. eigenvalues --    5.28981   5.33816   5.37303  35.36250  35.39974
 Alpha virt. eigenvalues --   35.43712  35.44624  35.45102  35.45631  35.49594
 Alpha virt. eigenvalues --   35.51243  35.56515  35.59091  35.60661  35.62151
 Alpha virt. eigenvalues --   35.86099  35.98421  36.01529  36.03716  36.19052
 Alpha virt. eigenvalues --   36.22146  36.88702  36.97598  36.98504  37.03776
 Alpha virt. eigenvalues --   37.06573  37.19647 113.57426 113.59693 120.21292
 Alpha virt. eigenvalues --  120.23826 120.25027 120.25111
          Condensed to atoms (all electrons):
               1          2          3          4          5          6
     1  Bi  22.394887  -0.020774   0.160422  -0.019777   0.169061  -0.017892
     2  Bi  -0.020774  22.229072  -0.032066   0.118827  -0.020277   0.160166
     3  Bi   0.160422  -0.032066  22.228325   0.059939   0.160107   0.214153
     4  Ge  -0.019777   0.118827   0.059939  31.569861   0.141325   0.125168
     5  Bi   0.169061  -0.020277   0.160107   0.141325  22.403042  -0.018223
     6  Ge  -0.017892   0.160166   0.214153   0.125168  -0.018223  31.596832
     7  Ge   0.138785   0.116905   0.066885  -0.025150  -0.019508   0.122734
     8  Sn   0.178945   0.147046  -0.017748  -0.016066  -0.014443  -0.012532
     9  Sn  -0.013723   0.146339  -0.017997   0.144281   0.176408  -0.012762
               7          8          9
     1  Bi   0.138785   0.178945  -0.013723
     2  Bi   0.116905   0.147046   0.146339
     3  Bi   0.066885  -0.017748  -0.017997
     4  Ge  -0.025150  -0.016066   0.144281
     5  Bi  -0.019508  -0.014443   0.176408
     6  Ge   0.122734  -0.012532  -0.012762
     7  Ge  31.573320   0.142297  -0.016478
     8  Sn   0.142297  21.446295   0.163381
     9  Sn  -0.016478   0.163381  21.442852
 Mulliken charges:
               1
     1  Bi   0.030065
     2  Bi   0.154764
     3  Bi   0.177981
     4  Ge  -0.098408
     5  Bi   0.022508
     6  Ge  -0.157643
     7  Ge  -0.099791
     8  Sn  -0.017175
     9  Sn  -0.012300
 Sum of Mulliken charges =   0.00000
 Mulliken charges with hydrogens summed into heavy atoms:
               1
     1  Bi   0.030065
     2  Bi   0.154764
     3  Bi   0.177981
     4  Ge  -0.098408
     5  Bi   0.022508
     6  Ge  -0.157643
     7  Ge  -0.099791
     8  Sn  -0.017175
     9  Sn  -0.012300
 Electronic spatial extent (au):  <R**2>=           6044.5776
 Charge=              0.0000 electrons
 Dipole moment (field-independent basis, Debye):
    X=             -1.2462    Y=             -0.4096    Z=             -0.0023  Tot=              1.3118
 Quadrupole moment (field-independent basis, Debye-Ang):
   XX=           -213.7943   YY=           -217.9958   ZZ=           -222.9634
   XY=              0.1858   XZ=             -0.0008   YZ=             -0.0216
 Traceless Quadrupole moment (field-independent basis, Debye-Ang):
   XX=              4.4569   YY=              0.2554   ZZ=             -4.7122
   XY=              0.1858   XZ=             -0.0008   YZ=             -0.0216
 Octapole moment (field-independent basis, Debye-Ang**2):
  XXX=            -83.8818  YYY=            -23.9459  ZZZ=              0.1231  XYY=            -43.0043
  XXY=             -1.1782  XXZ=              0.1867  XZZ=            -41.5722  YZZ=            -11.4797
  YYZ=             -0.1978  XYZ=              0.0251
 Hexadecapole moment (field-independent basis, Debye-Ang**3):
 XXXX=          -3502.4174 YYYY=          -3199.5673 ZZZZ=          -3021.7062 XXXY=             45.2922
 XXXZ=              0.3345 YYYX=             30.0408 YYYZ=              0.7524 ZZZX=             -1.2005
 ZZZY=             -0.4807 XXYY=          -1097.5619 XXZZ=          -1102.5349 YYZZ=          -1023.6997
 XXYZ=             -0.7574 YYXZ=              1.3007 ZZXY=             38.7758
 N-N= 3.548309454092D+03 E-N=-2.468762321086D+04  KE= 6.661934419175D+03
 No NMR shielding tensors so no spin-rotation constants.
 Leave Link  601 at Tue Mar  6 16:21:13 2018, MaxMem=   536870912 cpu:         2.4
 (Enter /share/apps//mg09/l701.exe)
 Compute integral first derivatives.
 ... and contract with generalized density number  0.
   1 Symmetry operations used in ECPInt.
 ECPInt:  NShTT=   10440 NPrTT=   41973 LenC2=    9663 LenP2D=   27430.
 LDataN:  DoStor=T MaxTD1= 9 Len=  602
 Leave Link  701 at Tue Mar  6 16:21:41 2018, MaxMem=   536870912 cpu:        99.1
 (Enter /share/apps//mg09/l702.exe)
 L702 exits ... SP integral derivatives will be done elsewhere.
 Leave Link  702 at Tue Mar  6 16:21:41 2018, MaxMem=   536870912 cpu:         0.1
 (Enter /share/apps//mg09/l703.exe)
 Compute integral first derivatives, UseDBF=F ICtDFT=           0.
 Integral derivatives from FoFJK, PRISM(SPDF).
 Calling FoFJK, ICntrl=      2127 FMM=F ISym2X=0 I1Cent= 0 IOpClX= 0 NMat=1 NMatS=1 NMatT=0.
 FoFJK:  IHMeth= 1 ICntrl=    2127 DoSepK=F KAlg= 0 I1Cent=   0 FoldK=F
 IRaf=         0 NMat=   1 IRICut=       1 DoRegI=T DoRafI=F ISym2E= 0.
 FoFCou: FMM=F IPFlag=           0 FMFlag=      100000 FMFlg1=         800
         NFxFlg=           0 DoJE=F BraDBF=F KetDBF=F FulRan=T
         wScrn=  0.000000 ICntrl=    2127 IOpCl=  0 I1Cent=           0 NGrid=           0
         NMat0=    1 NMatS0=      1 NMatT0=    0 NMatD0=    1 NMtDS0=    0 NMtDT0=    0
 Symmetry not used in FoFCou.
 Defaulting to unpruned grid for atomic number  83.
 Defaulting to unpruned grid for atomic number  83.
 Defaulting to unpruned grid for atomic number  83.
 Defaulting to unpruned grid for atomic number  83.
 Leave Link  703 at Tue Mar  6 16:25:05 2018, MaxMem=   536870912 cpu:       785.9
 (Enter /share/apps//mg09/l716.exe)
 Dipole        =-4.90306882D-01-1.61158437D-01-9.06061786D-04
 ***** Axes restored to original set *****
 -------------------------------------------------------------------
 Center     Atomic                   Forces (Hartrees/Bohr)
 Number     Number              X              Y              Z
 -------------------------------------------------------------------
      1       83           0.006203170    0.004018691    0.003192191
      2       83          -0.011813336   -0.000982926   -0.000157200
      3       83           0.009403537   -0.003142709    0.000124546
      4       32           0.000674013   -0.004460478   -0.012228936
      5       83           0.006279307    0.003860401   -0.003243791
      6       32          -0.003082098   -0.015230279    0.000124903
      7       32           0.000731787   -0.004094051    0.012245562
      8       50          -0.004220355    0.010057820    0.006099874
      9       50          -0.004176025    0.009973529   -0.006157149
 -------------------------------------------------------------------
 Cartesian Forces:  Max     0.015230279 RMS     0.006826318
 Force constants in Cartesian coordinates: 
                1             2             3             4             5 
      1  0.148469D+00
      2  0.258523D-01  0.128604D+00
      3  0.102258D-01  0.247177D-01  0.128580D+00
      4 -0.403764D-02 -0.476462D-02 -0.765397D-02  0.240341D+00
      5 -0.277785D-02  0.422814D-02 -0.315692D-02 -0.522578D-03  0.183146D+00
      6  0.166357D-02 -0.187280D-03  0.331895D-02 -0.131735D-03  0.441598D-04
      7 -0.308196D-01 -0.110035D-01 -0.909376D-02 -0.100863D-01 -0.446755D-03
      8  0.213891D-01 -0.512907D-01 -0.120005D-01  0.800920D-02  0.522433D-02
      9  0.100136D-01 -0.244810D-01 -0.241143D-01 -0.165917D-03  0.470351D-04
     10  0.230026D-02  0.426973D-03  0.593761D-03 -0.468472D-01  0.633652D-02
     11 -0.417931D-02  0.292774D-02 -0.436682D-02 -0.556791D-02 -0.224222D-01
     12 -0.783285D-02 -0.465500D-02 -0.173713D-02 -0.152430D-02 -0.112314D-01
     13 -0.248654D-01 -0.527003D-02 -0.115538D-01 -0.409268D-02 -0.273851D-02
     14 -0.463059D-02 -0.167798D-01 -0.142162D-01 -0.456457D-02  0.439627D-02
     15  0.122477D-01  0.125626D-01 -0.542479D-01  0.772192D-02  0.310197D-02
     16  0.443532D-02 -0.239859D-02 -0.507843D-02 -0.566461D-01  0.474452D-01
     17 -0.689763D-02 -0.247656D-02 -0.425117D-02  0.295742D-02 -0.644972D-01
     18 -0.394183D-02  0.568239D-03  0.555638D-02 -0.204061D-03  0.457935D-03
     19 -0.394470D-01 -0.281030D-01  0.221142D-01 -0.461412D-01  0.557435D-02
     20 -0.208269D-01 -0.435953D-01  0.205065D-01 -0.555952D-02 -0.218428D-01
     21 -0.550499D-02 -0.524340D-02 -0.348817D-01  0.187572D-02  0.106376D-01
     22 -0.559876D-01  0.250908D-01  0.756669D-02 -0.361600D-01 -0.265214D-01
     23 -0.777522D-02 -0.219802D-01 -0.884617D-02  0.516136D-02 -0.444153D-01
     24 -0.952332D-02 -0.528251D-02 -0.222566D-01  0.332687D-02 -0.163349D-01
     25 -0.469292D-04  0.169768D-03 -0.712044D-02 -0.363296D-01 -0.263490D-01
     26 -0.153992D-03  0.362910D-03  0.161360D-02  0.485122D-02 -0.438172D-01
     27 -0.734768D-02  0.200061D-02 -0.217867D-03 -0.324452D-02  0.164345D-01
                6             7             8             9            10 
      6  0.153430D+00
      7 -0.750936D-04  0.222781D+00
      8  0.109111D-03 -0.217685D-01  0.185128D+00
      9  0.807631D-02  0.364010D-03 -0.722231D-03  0.128501D+00
     10  0.343998D-01 -0.333978D-01  0.322946D-02 -0.279258D-01  0.146010D+00
     11 -0.678322D-02  0.144437D-01 -0.210648D-01  0.613989D-02  0.108203D-01
     12 -0.473527D-01  0.904994D-03 -0.119402D-01 -0.354700D-01  0.451951D-02
     13 -0.163700D-02 -0.307406D-01  0.207884D-01 -0.107444D-01 -0.404861D-01
     14  0.208116D-03 -0.110415D-01 -0.498535D-01  0.253533D-01 -0.289679D-01
     15  0.330840D-02  0.959872D-02  0.129963D-01 -0.257226D-01 -0.218016D-01
     16 -0.628492D-03 -0.849641D-01 -0.448622D-01 -0.313250D-03 -0.213288D-01
     17  0.317333D-03  0.210316D-02 -0.473182D-01  0.284706D-03 -0.455051D-02
     18 -0.201877D-01 -0.640151D-03 -0.187310D-03 -0.213690D-01  0.574401D-02
     19 -0.340095D-01 -0.351436D-01  0.376667D-02  0.289253D-01  0.782910D-02
     20  0.613413D-02  0.147151D-01 -0.217565D-01 -0.664409D-02 -0.858060D-03
     21 -0.471974D-01 -0.822315D-03  0.116335D-01 -0.366182D-01 -0.100192D-02
     22 -0.188099D-01  0.116978D-02  0.475155D-02 -0.156330D-02  0.419629D-02
     23 -0.183395D-01  0.660382D-02  0.494981D-03  0.629839D-03 -0.307169D-03
     24 -0.265575D-01  0.495385D-02 -0.536801D-02  0.342452D-02 -0.253093D-02
     25  0.192283D-01  0.120123D-02  0.469631D-02  0.140971D-02 -0.182759D-01
     26  0.184971D-01  0.639455D-02  0.436749D-03 -0.607433D-03  0.138705D-01
     27 -0.268380D-01 -0.519026D-02  0.547930D-02  0.329245D-02  0.800310D-02
               11            12            13            14            15 
     11  0.168851D+00
     12  0.263110D-01  0.217271D+00
     13 -0.207061D-01  0.619862D-02  0.148974D+00
     14 -0.437048D-01  0.524594D-02  0.257344D-01  0.126410D+00
     15 -0.202350D-01 -0.347912D-01 -0.116183D-01 -0.240245D-01  0.130179D+00
     16 -0.307549D-02 -0.258145D-02  0.433134D-02 -0.240638D-02  0.518065D-02
     17 -0.427530D-01 -0.117556D-01 -0.677056D-02 -0.238289D-02  0.425369D-02
     18  0.328939D-01 -0.511493D-01  0.418106D-02 -0.309881D-03  0.560598D-02
     19 -0.832139D-03  0.113683D-02  0.222602D-02  0.307786D-03 -0.589398D-03
     20  0.618523D-02  0.407830D-02 -0.401669D-02  0.330007D-02  0.417245D-02
     21 -0.441919D-02 -0.110359D-01  0.793896D-02  0.457845D-02 -0.193871D-02
     22  0.427680D-02  0.468304D-02  0.000000D+00  0.265282D-03  0.709268D-02
     23  0.169630D-02 -0.719328D-02  0.919214D-04  0.288550D-03 -0.169301D-02
     24 -0.388042D-02 -0.152368D-02  0.737915D-02 -0.193651D-02  0.112312D-03
     25  0.482025D-02 -0.550440D-02 -0.553464D-01  0.253034D-01 -0.783233D-02
     26 -0.497159D-01  0.111402D-01 -0.711277D-02 -0.216735D-01  0.886543D-02
     27 -0.256601D-01 -0.342109D-01  0.985578D-02  0.510124D-02 -0.225054D-01
               16            17            18            19            20 
     16  0.162418D+00
     17  0.117817D-01  0.210367D+00
     18  0.573155D-03 -0.677665D-03  0.119585D+00
     19 -0.210437D-01 -0.459300D-02 -0.568648D-02  0.145977D+00
     20 -0.278892D-02 -0.429219D-01 -0.328918D-01  0.102291D-01  0.167701D+00
     21  0.275514D-02  0.115755D-01 -0.506097D-01 -0.618756D-02 -0.250055D-01
     22  0.639438D-02  0.302508D-02  0.397693D-02 -0.184456D-01  0.496404D-02
     23 -0.178398D-02 -0.405953D-02 -0.128806D-02  0.140319D-01 -0.488858D-01
     24  0.298554D-02 -0.577220D-02  0.636031D-02 -0.828257D-02  0.258096D-01
     25  0.640324D-02  0.294436D-02 -0.400263D-02  0.418885D-02  0.414188D-02
     26 -0.191134D-02 -0.395736D-02  0.143467D-02 -0.381583D-03  0.181575D-02
     27 -0.289286D-02  0.602543D-02  0.620771D-02  0.257914D-02  0.384038D-02
               21            22            23            24            25 
     21  0.218334D+00
     22  0.572009D-02  0.115308D+00
     23 -0.108551D-01 -0.225017D-01  0.137100D+00
     24 -0.342773D-01 -0.366055D-02  0.302579D-01  0.115099D+00
     25 -0.477312D-02 -0.164753D-01  0.647910D-02  0.535195D-02  0.114681D+00
     26  0.709804D-02  0.664960D-02 -0.202386D-01 -0.174930D-01 -0.222061D-01
     27 -0.177511D-02 -0.500568D-02  0.173273D-01 -0.403810D-01  0.324297D-02
               26            27 
     26  0.136787D+00
     27 -0.305487D-01  0.116428D+00
 Leave Link  716 at Tue Mar  6 16:25:05 2018, MaxMem=   536870912 cpu:         0.1
 (Enter /share/apps//mg09/l103.exe)

 GradGradGradGradGradGradGradGradGradGradGradGradGradGradGradGradGradGrad
 Berny optimization.
 Search for a local minimum.
 Step number   1 out of a maximum of  100
 All quantities printed in internal units (Hartrees-Bohrs-Radians)
 Second derivative matrix not updated -- first step.
 ITU=  0
     Eigenvalues ---    0.07562   0.11604   0.12009   0.12519   0.12766
     Eigenvalues ---    0.13744   0.14867   0.15507   0.16589   0.16684
     Eigenvalues ---    0.18696   0.21052   0.21378   0.24236   0.25122
     Eigenvalues ---    0.25926   0.26456   0.29279   0.30009   0.31288
     Eigenvalues ---    0.32859
 RFO step:  Lambda=-7.54173235D-03 EMin= 7.56248420D-02
 Linear search not attempted -- first point.
 TrRot=  0.000006 -0.002771  0.000016 -0.000034 -0.000003 -0.000034
 Variable       Old X    -DE/DX   Delta X   Delta X   Delta X     New X
                                 (Linear)    (Quad)   (Total)
    X1       -2.90375   0.00620   0.00000   0.04036   0.04024  -2.86350
    Y1       -1.95333   0.00402   0.00000   0.02757   0.02500  -1.92833
    Z1       -2.87200   0.00319   0.00000   0.03277   0.03278  -2.83923
    X2        4.78143  -0.01181   0.00000  -0.05645  -0.05637   4.72506
    Y2        1.12157  -0.00098   0.00000  -0.00991  -0.01300   1.10857
    Z2        0.00945  -0.00016   0.00000  -0.00106  -0.00103   0.00842
    X3       -3.36638   0.00940   0.00000   0.04588   0.04610  -3.32028
    Y3        3.07014  -0.00314   0.00000  -0.03105  -0.03359   3.03654
    Z3       -0.07297   0.00012   0.00000   0.00115   0.00115  -0.07182
    X4        0.93526   0.00067   0.00000   0.00291   0.00304   0.93830
    Y4        2.01775  -0.00446   0.00000  -0.02123  -0.02407   1.99368
    Z4        4.16164  -0.01223   0.00000  -0.06855  -0.06853   4.09311
    X5       -2.94739   0.00628   0.00000   0.04046   0.04033  -2.90706
    Y5       -1.84433   0.00386   0.00000   0.02652   0.02395  -1.82037
    Z5        2.92144  -0.00324   0.00000  -0.03272  -0.03271   2.88873
    X6        1.40790  -0.00308   0.00000  -0.01276  -0.01240   1.39550
    Y6        5.32572  -0.01523   0.00000  -0.08316  -0.08603   5.23970
    Z6       -0.04059   0.00012   0.00000   0.00075   0.00077  -0.03982
    X7        0.93907   0.00073   0.00000   0.00349   0.00364   0.94271
    Y7        1.93889  -0.00409   0.00000  -0.01946  -0.02229   1.91660
    Z7       -4.18931   0.01225   0.00000   0.06854   0.06855  -4.12076
    X8        2.65576  -0.00422   0.00000  -0.03202  -0.03222   2.62353
    Y8       -3.32548   0.01006   0.00000   0.06853   0.06558  -3.25990
    Z8       -2.99194   0.00610   0.00000   0.04959   0.04962  -2.94232
    X9        2.60752  -0.00418   0.00000  -0.03214  -0.03236   2.57516
    Y9       -3.26936   0.00997   0.00000   0.06740   0.06446  -3.20490
    Z9        3.05901  -0.00616   0.00000  -0.05062  -0.05059   3.00842
         Item               Value     Threshold  Converged?
 Maximum Force            0.015230     0.000450     NO 
 RMS     Force            0.006826     0.000300     NO 
 Maximum Displacement     0.086028     0.001800     NO 
 RMS     Displacement     0.041635     0.001200     NO 
 Predicted change in Energy=-3.947571D-03
 Lowest energy point so far.  Saving SCF results.
 GradGradGradGradGradGradGradGradGradGradGradGradGradGradGradGradGradGrad

 Leave Link  103 at Tue Mar  6 16:25:06 2018, MaxMem=   536870912 cpu:         1.3
 (Enter /share/apps//mg09/l202.exe)
                          Input orientation:                          
 ---------------------------------------------------------------------
 Center     Atomic      Atomic             Coordinates (Angstroms)
 Number     Number       Type             X           Y           Z
 ---------------------------------------------------------------------
      1         83           0       -1.515301   -1.020429   -1.502455
      2         83           0        2.500393    0.586629    0.004456
      3         83           0       -1.757016    1.606868   -0.038005
      4         32           0        0.496524    1.055010    2.165980
      5         83           0       -1.538350   -0.963300    1.528647
      6         32           0        0.738468    2.772728   -0.021072
      7         32           0        0.498862    1.014221   -2.180611
      8         50           0        1.388315   -1.725066   -1.557009
      9         50           0        1.362715   -1.695961    1.591985
 ---------------------------------------------------------------------
                    Distance matrix (angstroms):
                    1          2          3          4          5
     1  Bi   0.000000
     2  Bi   4.580307   0.000000
     3  Bi   3.017570   4.378152   0.000000
     4  Ge   4.670364   2.984469   3.200084   0.000000
     5  Bi   3.031729   4.586599   3.017943   2.936066   0.000000
     6  Ge   4.654246   2.807856   2.754443   2.791467   4.641491
     7  Ge   2.942202   2.993907   3.167172   4.346783   4.671127
     8  Sn   2.988390   3.003135   4.827242   4.731253   4.320524
     9  Sn   4.279589   3.004127   4.826828   2.940680   2.992822
                    6          7          8          9
     6  Ge   0.000000
     7  Ge   2.795240   0.000000
     8  Sn   4.797036   2.946812   0.000000
     9  Sn   4.791745   4.724808   3.149232   0.000000
 Stoichiometry    Bi4Ge3Sn2
 Framework group  C1[X(Bi4Ge3Sn2)]
 Deg. of freedom    21
 Full point group                 C1      NOp   1
 RotChk:  IX=0 Diff= 7.38D-03
 Largest Abelian subgroup         C1      NOp   1
 Largest concise Abelian subgroup C1      NOp   1
                         Standard orientation:                         
 ---------------------------------------------------------------------
 Center     Atomic      Atomic             Coordinates (Angstroms)
 Number     Number       Type             X           Y           Z
 ---------------------------------------------------------------------
      1         83           0       -1.522148   -1.014340   -1.503776
      2         83           0        2.500947    0.571245    0.006138
      3         83           0       -1.751109    1.613490   -0.038233
      4         32           0        0.498308    1.048969    2.166757
      5         83           0       -1.546609   -0.958502    1.527339
      6         32           0        0.750356    2.766431   -0.019355
      7         32           0        0.502884    1.010190   -2.179851
      8         50           0        1.377819   -1.733946   -1.557031
      9         50           0        1.350596   -1.706174    1.591961
 ---------------------------------------------------------------------
 Rotational constants (GHZ):      0.1079288      0.0887824      0.0858300
 Leave Link  202 at Tue Mar  6 16:25:07 2018, MaxMem=   536870912 cpu:         0.1
 (Enter /share/apps//mg09/l301.exe)
 Standard basis: def2TZVP (5D, 7F)
 Ernie: Thresh=  0.10000D-02 Tol=  0.10000D-05 Strict=F.
 There are   519 symmetry adapted cartesian basis functions of A   symmetry.
 There are   444 symmetry adapted basis functions of A   symmetry.
   444 basis functions,   963 primitive gaussians,   519 cartesian basis functions
   116 alpha electrons      116 beta electrons
       nuclear repulsion energy      3601.6354262167 Hartrees.
 IExCor= 1009 DFT=T Ex+Corr=PBE1PBE ExCW=0 ScaHFX=  0.250000
 ScaDFX=  0.750000  0.750000  1.000000  1.000000 ScalE2=  1.000000  1.000000
 IRadAn=      0 IRanWt=     -1 IRanGd=            0 ICorTp=0 IEmpDi=  4
 NAtoms=    9 NActive=    9 NUniq=    9 SFac= 1.00D+00 NAtFMM=   60 NAOKFM=F Big=F
 Integral buffers will be    131072 words long.
 Raffenetti 2 integral format.
 Two-electron integral symmetry is turned on.
 Leave Link  301 at Tue Mar  6 16:25:07 2018, MaxMem=   536870912 cpu:         0.2
 (Enter /share/apps//mg09/l302.exe)
 NPDir=0 NMtPBC=     1 NCelOv=     1 NCel=       1 NClECP=     1 NCelD=      1
         NCelK=      1 NCelE2=     1 NClLst=     1 CellRange=     0.0.
 One-electron integrals computed using PRISM.
   1 Symmetry operations used in ECPInt.
 ECPInt:  NShTT=   10440 NPrTT=   41973 LenC2=    9694 LenP2D=   27590.
 LDataN:  DoStor=T MaxTD1= 8 Len=  415
 NBasis=   444 RedAO= T EigKep=  1.18D-03  NBF=   444
 NBsUse=   444 1.00D-06 EigRej= -1.00D+00 NBFU=   444
 Precomputing XC quadrature grid using
 IXCGrd= 4 IRadAn=           0 IRanWt=          -1 IRanGd=           0 AccXCQ= 0.00D+00.
 Defaulting to unpruned grid for atomic number  83.
 Defaulting to unpruned grid for atomic number  50.
 Defaulting to unpruned grid for atomic number  83.
 Generated NRdTot=       0 NPtTot=           0 NUsed=           0 NTot=          32
 NSgBfM=   505   505   505   505   505 MxSgAt=     9 MxSgA2=     9.
 Leave Link  302 at Tue Mar  6 16:25:19 2018, MaxMem=   536870912 cpu:        40.8
 (Enter /share/apps//mg09/l303.exe)
 DipDrv:  MaxL=1.
 Leave Link  303 at Tue Mar  6 16:25:19 2018, MaxMem=   536870912 cpu:         0.4
 (Enter /share/apps//mg09/l401.exe)
 Initial guess from the checkpoint file:  "Isomer_54.chk"
 B after Tr=     0.000000    0.000000    0.000000
         Rot=    0.999997   -0.000225    0.000266    0.002501 Ang=  -0.29 deg.
 Guess basis will be translated and rotated to current coordinates.
 JPrj=2 DoOrth=T DoCkMO=T.
 Generating alternative initial guess.
 ExpMin= 4.62D-02 ExpMax= 4.66D+05 ExpMxC= 4.50D+03 IAcc=2 IRadAn=         4 AccDes= 0.00D+00
 Harris functional with IExCor= 1009 and IRadAn=       4 diagonalized for initial guess.
 HarFok:  IExCor= 1009 AccDes= 0.00D+00 IRadAn=         4 IDoV= 1 UseB2=F ITyADJ=14
 ICtDFT=  3500011 ScaDFX=  1.000000  1.000000  1.000000  1.000000
 Defaulting to unpruned grid for atomic number  83.
 Defaulting to unpruned grid for atomic number  83.
 Defaulting to unpruned grid for atomic number  83.
 Defaulting to unpruned grid for atomic number  83.
 FoFCou: FMM=F IPFlag=           0 FMFlag=      100000 FMFlg1=           0
         NFxFlg=           0 DoJE=T BraDBF=F KetDBF=T FulRan=T
         wScrn=  0.000000 ICntrl=     500 IOpCl=  0 I1Cent=   200000004 NGrid=           0
         NMat0=    1 NMatS0=      1 NMatT0=    0 NMatD0=    1 NMtDS0=    0 NMtDT0=    0
 Petite list used in FoFCou.
 Harris En= -7518.60662701976    
 Leave Link  401 at Tue Mar  6 16:25:24 2018, MaxMem=   536870912 cpu:        15.4
 (Enter /share/apps//mg09/l502.exe)
 Closed shell SCF:
 Using DIIS extrapolation, IDIIS=  1040.
 Integral symmetry usage will be decided dynamically.
 IVT=     1410107 IEndB=     1410107 NGot=   536870912 MDV=   536322046
 LenX=   536322046 LenY=   536052166
 Requested convergence on RMS density matrix=1.00D-08 within 768 cycles.
 Requested convergence on MAX density matrix=1.00D-06.
 Requested convergence on             energy=1.00D-06.
 No special actions if energy rises.
 Fock matrices will be formed incrementally for  20 cycles.

 Cycle   1  Pass 1  IDiag  1:
 FoFJK:  IHMeth= 1 ICntrl=       0 DoSepK=F KAlg= 0 I1Cent=   0 FoldK=F
 IRaf= 880000000 NMat=   1 IRICut=       1 DoRegI=T DoRafI=F ISym2E= 0.
 FoFCou: FMM=F IPFlag=           0 FMFlag=      100000 FMFlg1=           0
         NFxFlg=           0 DoJE=F BraDBF=F KetDBF=F FulRan=T
         wScrn=  0.000000 ICntrl=       0 IOpCl=  0 I1Cent=           0 NGrid=           0
         NMat0=    1 NMatS0=      1 NMatT0=    0 NMatD0=    1 NMtDS0=    0 NMtDT0=    0
 Symmetry not used in FoFCou.
 Defaulting to unpruned grid for atomic number  83.
 Defaulting to unpruned grid for atomic number  83.
 Defaulting to unpruned grid for atomic number  83.
 Defaulting to unpruned grid for atomic number  83.
 E= -7517.80706703983    
 DIIS: error= 6.65D-03 at cycle   1 NSaved=   1.
 NSaved= 1 IEnMin= 1 EnMin= -7517.80706703983     IErMin= 1 ErrMin= 6.65D-03
 ErrMax= 6.65D-03  0.00D+00 EMaxC= 1.00D-01 BMatC= 8.25D-03 BMatP= 8.25D-03
 IDIUse=3 WtCom= 9.33D-01 WtEn= 6.65D-02
 Coeff-Com:  0.100D+01
 Coeff-En:   0.100D+01
 Coeff:      0.100D+01
 Gap=     8.061 Goal=   None    Shift=    0.000
 GapD=    8.061 DampG=2.000 DampE=1.000 DampFc=2.0000 IDamp=-1.
 RMSDP=1.67D-04 MaxDP=3.85D-03              OVMax= 1.91D-02

 Cycle   2  Pass 1  IDiag  1:
 RMSU=  1.66D-04    CP:  1.00D+00
 E= -7517.80705570051     Delta-E=        0.000011339318 Rises=F Damp=F
 DIIS: error= 1.72D-03 at cycle   2 NSaved=   2.
 NSaved= 2 IEnMin= 1 EnMin= -7517.80706703983     IErMin= 2 ErrMin= 1.72D-03
 ErrMax= 1.72D-03  0.00D+00 EMaxC= 1.00D-01 BMatC= 1.48D-03 BMatP= 8.25D-03
 IDIUse=3 WtCom= 9.83D-01 WtEn= 1.72D-02
 Coeff-Com:  0.190D+00 0.810D+00
 Coeff-En:   0.503D+00 0.497D+00
 Coeff:      0.195D+00 0.805D+00
 Gap=     0.120 Goal=   None    Shift=    0.000
 RMSDP=2.05D-04 MaxDP=7.57D-03 DE= 1.13D-05 OVMax= 1.84D-02

 Cycle   3  Pass 1  IDiag  1:
 RMSU=  1.86D-04    CP:  9.99D-01  4.95D-01
 E= -7517.80494713222     Delta-E=        0.002108568293 Rises=F Damp=F
 DIIS: error= 2.56D-03 at cycle   3 NSaved=   3.
 NSaved= 3 IEnMin= 1 EnMin= -7517.80706703983     IErMin= 2 ErrMin= 1.72D-03
 ErrMax= 2.56D-03  0.00D+00 EMaxC= 1.00D-01 BMatC= 3.82D-03 BMatP= 1.48D-03
 IDIUse=3 WtCom= 1.65D-01 WtEn= 8.35D-01
 Coeff-Com:  0.739D-02 0.615D+00 0.378D+00
 Coeff-En:   0.000D+00 0.683D+00 0.317D+00
 Coeff:      0.122D-02 0.672D+00 0.327D+00
 Gap=     0.120 Goal=   None    Shift=    0.000
 RMSDP=1.20D-04 MaxDP=4.66D-03 DE= 2.11D-03 OVMax= 1.47D-02

 Cycle   4  Pass 1  IDiag  1:
 RMSU=  4.79D-05    CP:  9.99D-01  7.87D-01  4.74D-01
 E= -7517.80798700409     Delta-E=       -0.003039871875 Rises=F Damp=F
 DIIS: error= 6.11D-04 at cycle   4 NSaved=   4.
 NSaved= 4 IEnMin= 4 EnMin= -7517.80798700409     IErMin= 4 ErrMin= 6.11D-04
 ErrMax= 6.11D-04  0.00D+00 EMaxC= 1.00D-01 BMatC= 2.70D-04 BMatP= 1.48D-03
 IDIUse=3 WtCom= 9.94D-01 WtEn= 6.11D-03
 Coeff-Com:  0.124D-03 0.458D+00 0.237D+00 0.305D+00
 Coeff-En:   0.000D+00 0.146D+00 0.000D+00 0.854D+00
 Coeff:      0.123D-03 0.457D+00 0.235D+00 0.308D+00
 Gap=     0.121 Goal=   None    Shift=    0.000
 RMSDP=4.14D-05 MaxDP=1.65D-03 DE=-3.04D-03 OVMax= 4.18D-03

 Cycle   5  Pass 1  IDiag  1:
 RMSU=  1.36D-05    CP:  9.99D-01  8.46D-01  4.25D-01  2.43D-01
 E= -7517.80821879898     Delta-E=       -0.000231794884 Rises=F Damp=F
 DIIS: error= 1.31D-04 at cycle   5 NSaved=   5.
 NSaved= 5 IEnMin= 5 EnMin= -7517.80821879898     IErMin= 5 ErrMin= 1.31D-04
 ErrMax= 1.31D-04  0.00D+00 EMaxC= 1.00D-01 BMatC= 1.24D-05 BMatP= 2.70D-04
 IDIUse=3 WtCom= 9.99D-01 WtEn= 1.31D-03
 Coeff-Com: -0.853D-03 0.227D+00 0.107D+00 0.217D+00 0.450D+00
 Coeff-En:   0.000D+00 0.000D+00 0.000D+00 0.329D-01 0.967D+00
 Coeff:     -0.852D-03 0.227D+00 0.107D+00 0.217D+00 0.451D+00
 Gap=     0.121 Goal=   None    Shift=    0.000
 RMSDP=9.65D-06 MaxDP=4.55D-04 DE=-2.32D-04 OVMax= 1.05D-03

 Cycle   6  Pass 1  IDiag  1:
 RMSU=  4.29D-06    CP:  9.99D-01  8.56D-01  4.20D-01  3.75D-01  6.16D-01
 E= -7517.80823126721     Delta-E=       -0.000012468234 Rises=F Damp=F
 DIIS: error= 2.44D-05 at cycle   6 NSaved=   6.
 NSaved= 6 IEnMin= 6 EnMin= -7517.80823126721     IErMin= 6 ErrMin= 2.44D-05
 ErrMax= 2.44D-05  0.00D+00 EMaxC= 1.00D-01 BMatC= 6.78D-07 BMatP= 1.24D-05
 IDIUse=1 WtCom= 1.00D+00 WtEn= 0.00D+00
 Coeff-Com: -0.501D-03 0.104D+00 0.491D-01 0.106D+00 0.268D+00 0.473D+00
 Coeff:     -0.501D-03 0.104D+00 0.491D-01 0.106D+00 0.268D+00 0.473D+00
 Gap=     0.121 Goal=   None    Shift=    0.000
 RMSDP=3.68D-06 MaxDP=1.77D-04 DE=-1.25D-05 OVMax= 4.19D-04

 Cycle   7  Pass 1  IDiag  1:
 RMSU=  2.77D-06    CP:  9.99D-01  8.59D-01  4.21D-01  3.71D-01  6.89D-01
                    CP:  5.08D-01
 E= -7517.80823156590     Delta-E=       -0.000000298689 Rises=F Damp=F
 DIIS: error= 2.95D-05 at cycle   7 NSaved=   7.
 NSaved= 7 IEnMin= 7 EnMin= -7517.80823156590     IErMin= 6 ErrMin= 2.44D-05
 ErrMax= 2.95D-05  0.00D+00 EMaxC= 1.00D-01 BMatC= 3.98D-07 BMatP= 6.78D-07
 IDIUse=1 WtCom= 1.00D+00 WtEn= 0.00D+00
 Coeff-Com: -0.179D-03 0.211D-01 0.109D-01 0.270D-01 0.971D-01 0.420D+00
 Coeff-Com:  0.425D+00
 Coeff:     -0.179D-03 0.211D-01 0.109D-01 0.270D-01 0.971D-01 0.420D+00
 Coeff:      0.425D+00
 Gap=     0.121 Goal=   None    Shift=    0.000
 RMSDP=2.19D-06 MaxDP=9.88D-05 DE=-2.99D-07 OVMax= 2.25D-04

 Cycle   8  Pass 1  IDiag  1:
 RMSU=  8.86D-07    CP:  9.99D-01  8.61D-01  4.24D-01  3.70D-01  6.99D-01
                    CP:  8.44D-01  5.42D-01
 E= -7517.80823208524     Delta-E=       -0.000000519340 Rises=F Damp=F
 DIIS: error= 6.18D-06 at cycle   8 NSaved=   8.
 NSaved= 8 IEnMin= 8 EnMin= -7517.80823208524     IErMin= 8 ErrMin= 6.18D-06
 ErrMax= 6.18D-06  0.00D+00 EMaxC= 1.00D-01 BMatC= 4.48D-08 BMatP= 3.98D-07
 IDIUse=1 WtCom= 1.00D+00 WtEn= 0.00D+00
 Coeff-Com:  0.427D-05-0.138D-01-0.552D-02-0.837D-02-0.292D-02 0.185D+00
 Coeff-Com:  0.299D+00 0.547D+00
 Coeff:      0.427D-05-0.138D-01-0.552D-02-0.837D-02-0.292D-02 0.185D+00
 Coeff:      0.299D+00 0.547D+00
 Gap=     0.121 Goal=   None    Shift=    0.000
 RMSDP=6.49D-07 MaxDP=3.87D-05 DE=-5.19D-07 OVMax= 7.01D-05

 Cycle   9  Pass 1  IDiag  1:
 RMSU=  2.60D-07    CP:  9.99D-01  8.61D-01  4.25D-01  3.73D-01  7.11D-01
                    CP:  8.55D-01  6.70D-01  5.96D-01
 E= -7517.80823213041     Delta-E=       -0.000000045169 Rises=F Damp=F
 DIIS: error= 1.45D-06 at cycle   9 NSaved=   9.
 NSaved= 9 IEnMin= 9 EnMin= -7517.80823213041     IErMin= 9 ErrMin= 1.45D-06
 ErrMax= 1.45D-06  0.00D+00 EMaxC= 1.00D-01 BMatC= 2.81D-09 BMatP= 4.48D-08
 IDIUse=1 WtCom= 1.00D+00 WtEn= 0.00D+00
 Coeff-Com:  0.190D-04-0.940D-02-0.389D-02-0.663D-02-0.111D-01 0.644D-01
 Coeff-Com:  0.130D+00 0.308D+00 0.529D+00
 Coeff:      0.190D-04-0.940D-02-0.389D-02-0.663D-02-0.111D-01 0.644D-01
 Coeff:      0.130D+00 0.308D+00 0.529D+00
 Gap=     0.121 Goal=   None    Shift=    0.000
 RMSDP=1.66D-07 MaxDP=1.11D-05 DE=-4.52D-08 OVMax= 2.71D-05

 Cycle  10  Pass 1  IDiag  1:
 RMSU=  9.06D-08    CP:  9.99D-01  8.61D-01  4.25D-01  3.74D-01  7.16D-01
                    CP:  8.62D-01  6.68D-01  6.87D-01  8.54D-01
 E= -7517.80823213335     Delta-E=       -0.000000002939 Rises=F Damp=F
 DIIS: error= 3.28D-07 at cycle  10 NSaved=  10.
 NSaved=10 IEnMin=10 EnMin= -7517.80823213335     IErMin=10 ErrMin= 3.28D-07
 ErrMax= 3.28D-07  0.00D+00 EMaxC= 1.00D-01 BMatC= 1.43D-10 BMatP= 2.81D-09
 IDIUse=1 WtCom= 1.00D+00 WtEn= 0.00D+00
 Coeff-Com:  0.626D-05-0.230D-02-0.923D-03-0.170D-02-0.431D-02 0.815D-02
 Coeff-Com:  0.241D-01 0.650D-01 0.212D+00 0.700D+00
 Coeff:      0.626D-05-0.230D-02-0.923D-03-0.170D-02-0.431D-02 0.815D-02
 Coeff:      0.241D-01 0.650D-01 0.212D+00 0.700D+00
 Gap=     0.121 Goal=   None    Shift=    0.000
 RMSDP=7.47D-08 MaxDP=3.04D-06 DE=-2.94D-09 OVMax= 1.12D-05

 Cycle  11  Pass 1  IDiag  1:
 RMSU=  6.07D-08    CP:  9.99D-01  8.61D-01  4.25D-01  3.75D-01  7.17D-01
                    CP:  8.65D-01  6.76D-01  6.91D-01  9.50D-01  8.50D-01
 E= -7517.80823213318     Delta-E=        0.000000000167 Rises=F Damp=F
 DIIS: error= 6.51D-07 at cycle  11 NSaved=  11.
 NSaved=11 IEnMin=10 EnMin= -7517.80823213335     IErMin=10 ErrMin= 3.28D-07
 ErrMax= 6.51D-07  0.00D+00 EMaxC= 1.00D-01 BMatC= 2.77D-10 BMatP= 1.43D-10
 IDIUse=1 WtCom= 1.00D+00 WtEn= 0.00D+00
 Coeff-Com:  0.564D-06 0.397D-03 0.199D-03 0.205D-03-0.970D-03-0.929D-02
 Coeff-Com: -0.124D-01-0.224D-01 0.563D-01 0.653D+00 0.335D+00
 Coeff:      0.564D-06 0.397D-03 0.199D-03 0.205D-03-0.970D-03-0.929D-02
 Coeff:     -0.124D-01-0.224D-01 0.563D-01 0.653D+00 0.335D+00
 Gap=     0.121 Goal=   None    Shift=    0.000
 RMSDP=4.88D-08 MaxDP=1.81D-06 DE= 1.67D-10 OVMax= 6.91D-06

 Cycle  12  Pass 1  IDiag  1:
 RMSU=  1.77D-08    CP:  9.99D-01  8.61D-01  4.25D-01  3.75D-01  7.17D-01
                    CP:  8.67D-01  6.78D-01  6.94D-01  9.73D-01  1.07D+00
                    CP:  3.64D-01
 E= -7517.80823213349     Delta-E=       -0.000000000313 Rises=F Damp=F
 DIIS: error= 8.78D-08 at cycle  12 NSaved=  12.
 NSaved=12 IEnMin=12 EnMin= -7517.80823213349     IErMin=12 ErrMin= 8.78D-08
 ErrMax= 8.78D-08  0.00D+00 EMaxC= 1.00D-01 BMatC= 1.03D-11 BMatP= 1.43D-10
 IDIUse=1 WtCom= 1.00D+00 WtEn= 0.00D+00
 Coeff-Com: -0.460D-06 0.502D-03 0.227D-03 0.314D-03 0.181D-04-0.594D-02
 Coeff-Com: -0.102D-01-0.202D-01 0.605D-02 0.303D+00 0.210D+00 0.516D+00
 Coeff:     -0.460D-06 0.502D-03 0.227D-03 0.314D-03 0.181D-04-0.594D-02
 Coeff:     -0.102D-01-0.202D-01 0.605D-02 0.303D+00 0.210D+00 0.516D+00
 Gap=     0.121 Goal=   None    Shift=    0.000
 RMSDP=1.11D-08 MaxDP=4.32D-07 DE=-3.13D-10 OVMax= 1.50D-06

 Cycle  13  Pass 1  IDiag  1:
 RMSU=  5.97D-09    CP:  9.99D-01  8.61D-01  4.25D-01  3.75D-01  7.17D-01
                    CP:  8.68D-01  6.78D-01  6.96D-01  9.84D-01  1.09D+00
                    CP:  4.55D-01  7.95D-01
 E= -7517.80823213279     Delta-E=        0.000000000700 Rises=F Damp=F
 DIIS: error= 3.19D-08 at cycle  13 NSaved=  13.
 NSaved=13 IEnMin=12 EnMin= -7517.80823213349     IErMin=13 ErrMin= 3.19D-08
 ErrMax= 3.19D-08  0.00D+00 EMaxC= 1.00D-01 BMatC= 9.66D-13 BMatP= 1.03D-11
 IDIUse=1 WtCom= 1.00D+00 WtEn= 0.00D+00
 Coeff-Com: -0.344D-06 0.204D-03 0.856D-04 0.139D-03 0.179D-03-0.159D-02
 Coeff-Com: -0.348D-02-0.714D-02-0.961D-02 0.441D-01 0.548D-01 0.283D+00
 Coeff-Com:  0.639D+00
 Coeff:     -0.344D-06 0.204D-03 0.856D-04 0.139D-03 0.179D-03-0.159D-02
 Coeff:     -0.348D-02-0.714D-02-0.961D-02 0.441D-01 0.548D-01 0.283D+00
 Coeff:      0.639D+00
 Gap=     0.121 Goal=   None    Shift=    0.000
 RMSDP=3.94D-09 MaxDP=3.51D-07 DE= 7.00D-10 OVMax= 5.97D-07

 SCF Done:  E(RPBE1PBE) =  -7517.80823213     A.U. after   13 cycles
            NFock= 13  Conv=0.39D-08     -V/T= 2.1284
 KE= 6.662143345285D+03 PE=-2.479434817555D+04 EE= 7.012761171912D+03
 Leave Link  502 at Tue Mar  6 16:37:28 2018, MaxMem=   536870912 cpu:      2713.3
 (Enter /share/apps//mg09/l701.exe)
 Compute integral first derivatives.
 ... and contract with generalized density number  0.
   1 Symmetry operations used in ECPInt.
 ECPInt:  NShTT=   10440 NPrTT=   41973 LenC2=    9694 LenP2D=   27590.
 LDataN:  DoStor=T MaxTD1= 9 Len=  602
 Leave Link  701 at Tue Mar  6 16:37:57 2018, MaxMem=   536870912 cpu:        94.2
 (Enter /share/apps//mg09/l702.exe)
 L702 exits ... SP integral derivatives will be done elsewhere.
 Leave Link  702 at Tue Mar  6 16:37:57 2018, MaxMem=   536870912 cpu:         0.1
 (Enter /share/apps//mg09/l703.exe)
 Compute integral first derivatives, UseDBF=F ICtDFT=           0.
 Integral derivatives from FoFJK, PRISM(SPDF).
 Calling FoFJK, ICntrl=      2127 FMM=F ISym2X=0 I1Cent= 0 IOpClX= 0 NMat=1 NMatS=1 NMatT=0.
 FoFJK:  IHMeth= 1 ICntrl=    2127 DoSepK=F KAlg= 0 I1Cent=   0 FoldK=F
 IRaf=         0 NMat=   1 IRICut=       1 DoRegI=T DoRafI=F ISym2E= 0.
 FoFCou: FMM=F IPFlag=           0 FMFlag=      100000 FMFlg1=         800
         NFxFlg=           0 DoJE=F BraDBF=F KetDBF=F FulRan=T
         wScrn=  0.000000 ICntrl=    2127 IOpCl=  0 I1Cent=           0 NGrid=           0
         NMat0=    1 NMatS0=      1 NMatT0=    0 NMatD0=    1 NMtDS0=    0 NMtDT0=    0
 Symmetry not used in FoFCou.
 Defaulting to unpruned grid for atomic number  83.
 Defaulting to unpruned grid for atomic number  83.
 Defaulting to unpruned grid for atomic number  83.
 Defaulting to unpruned grid for atomic number  83.
 Leave Link  703 at Tue Mar  6 16:41:31 2018, MaxMem=   536870912 cpu:       845.2
 (Enter /share/apps//mg09/l716.exe)
 Dipole        =-5.19671364D-01-1.62370445D-01-8.67777078D-04
 ***** Axes restored to original set *****
 -------------------------------------------------------------------
 Center     Atomic                   Forces (Hartrees/Bohr)
 Number     Number              X              Y              Z
 -------------------------------------------------------------------
      1       83           0.002112285    0.000669224   -0.001210202
      2       83          -0.003735261    0.000573656   -0.000134363
      3       83           0.003507431    0.001239535    0.000007187
      4       32           0.000302328   -0.002194197   -0.006635923
      5       83           0.002131989    0.000667859    0.001251279
      6       32          -0.001499587   -0.007608117    0.000082700
      7       32           0.000398958   -0.002005328    0.006638677
      8       50          -0.001597017    0.004344123    0.002228718
      9       50          -0.001621125    0.004313244   -0.002228074
 -------------------------------------------------------------------
 Cartesian Forces:  Max     0.007608117 RMS     0.003048908
 Leave Link  716 at Tue Mar  6 16:41:31 2018, MaxMem=   536870912 cpu:         0.0
 (Enter /share/apps//mg09/l103.exe)

 GradGradGradGradGradGradGradGradGradGradGradGradGradGradGradGradGradGrad
 Berny optimization.
 Search for a local minimum.
 Step number   2 out of a maximum of  100
 All quantities printed in internal units (Hartrees-Bohrs-Radians)
 Update second derivatives using D2CorN and points    1    2
 DE= -5.34D-03 DEPred=-3.95D-03 R= 1.35D+00
 TightC=F SS=  1.41D+00  RLast= 2.16D-01 DXNew= 5.0454D-01 6.4902D-01
 Trust test= 1.35D+00 RLast= 2.16D-01 DXMaxT set to 5.05D-01
 ITU=  1  0
     Eigenvalues ---    0.07562   0.09258   0.11857   0.12011   0.12519
     Eigenvalues ---    0.12902   0.13986   0.15509   0.16564   0.16610
     Eigenvalues ---    0.18604   0.21051   0.21378   0.24236   0.25024
     Eigenvalues ---    0.25536   0.26455   0.29279   0.29979   0.31296
     Eigenvalues ---    0.32864
 RFO step:  Lambda=-3.35293932D-04 EMin= 7.56157163D-02
 Quartic linear search produced a step of  0.59355.
 TrRot=  0.000036 -0.000298  0.000000 -0.000013 -0.000004 -0.000013
 Variable       Old X    -DE/DX   Delta X   Delta X   Delta X     New X
                                 (Linear)    (Quad)   (Total)
    X1       -2.86350   0.00211   0.02389  -0.00518   0.01871  -2.84480
    Y1       -1.92833   0.00067   0.01484  -0.00433   0.01028  -1.91805
    Z1       -2.83923  -0.00121   0.01945  -0.01922   0.00023  -2.83900
    X2        4.72506  -0.00374  -0.03346   0.00451  -0.02889   4.69617
    Y2        1.10857   0.00057  -0.00772   0.00433  -0.00380   1.10477
    Z2        0.00842  -0.00013  -0.00061  -0.00063  -0.00122   0.00720
    X3       -3.32028   0.00351   0.02736  -0.00243   0.02504  -3.29524
    Y3        3.03654   0.00124  -0.01994   0.01223  -0.00793   3.02861
    Z3       -0.07182   0.00001   0.00068  -0.00014   0.00053  -0.07129
    X4        0.93830   0.00030   0.00180   0.00143   0.00331   0.94160
    Y4        1.99368  -0.00219  -0.01428  -0.00156  -0.01616   1.97752
    Z4        4.09311  -0.00664  -0.04068  -0.00965  -0.05032   4.04279
    X5       -2.90706   0.00213   0.02394  -0.00523   0.01869  -2.88837
    Y5       -1.82037   0.00067   0.01422  -0.00410   0.00990  -1.81048
    Z5        2.88873   0.00125  -0.01942   0.01965   0.00022   2.88895
    X6        1.39550  -0.00150  -0.00736  -0.00066  -0.00785   1.38765
    Y6        5.23970  -0.00761  -0.05106  -0.01155  -0.06295   5.17675
    Z6       -0.03982   0.00008   0.00046   0.00023   0.00069  -0.03913
    X7        0.94271   0.00040   0.00216   0.00207   0.00433   0.94704
    Y7        1.91660  -0.00201  -0.01323  -0.00129  -0.01484   1.90176
    Z7       -4.12076   0.00664   0.04069   0.00952   0.05022  -4.07054
    X8        2.62353  -0.00160  -0.01913   0.00267  -0.01649   2.60704
    Y8       -3.25990   0.00434   0.03892   0.00442   0.04298  -3.21693
    Z8       -2.94232   0.00223   0.02945  -0.00257   0.02689  -2.91543
    X9        2.57516  -0.00162  -0.01921   0.00242  -0.01685   2.55831
    Y9       -3.20490   0.00431   0.03826   0.00464   0.04253  -3.16237
    Z9        3.00842  -0.00223  -0.03003   0.00280  -0.02723   2.98119
         Item               Value     Threshold  Converged?
 Maximum Force            0.007608     0.000450     NO 
 RMS     Force            0.003049     0.000300     NO 
 Maximum Displacement     0.062948     0.001800     NO 
[...]
     X     X            X         X                 X  X        X                                                                    
     X     X                      X                 X  X        X                                                                    
     X     X                                        X           X                                                                    
     X     X                                        X           X                                                                    
     X     X                                        X           X                                                                    
     X                                              X           X                                                                    
     X                                              X                                                                                
     X                                              X                                                                                
     X                                              X                                                                                
     X                                              X                                                                                
     X                                              X                                                                                
     X                                                                                                                               
     X                                                                                                                               
     X                                                                                                                               
 
 ***** Axes restored to original set *****
 -------------------------------------------------------------------
 Center     Atomic                   Forces (Hartrees/Bohr)
 Number     Number              X              Y              Z
 -------------------------------------------------------------------
      1       83           0.000095655    0.000025205    0.000000735
      2       83           0.000083349   -0.000040014   -0.000008144
      3       83           0.000009275   -0.000036682    0.000014570
      4       32          -0.000146929   -0.000002274    0.000009808
      5       83           0.000105899    0.000008660   -0.000023751
      6       32           0.000027079    0.000114787    0.000006091
      7       32          -0.000123606   -0.000018734   -0.000019969
      8       50          -0.000029686   -0.000022321    0.000043536
      9       50          -0.000021036   -0.000028626   -0.000022877
 -------------------------------------------------------------------
 Cartesian Forces:  Max     0.000146929 RMS     0.000057291
 Force constants in Cartesian coordinates: 
                1             2             3             4             5 
      1  0.644563D-01
      2  0.863649D-02  0.565319D-01
      3  0.207384D-02  0.229834D-01  0.628733D-01
      4 -0.404070D-02 -0.281981D-03  0.459186D-03  0.822616D-01
      5 -0.183904D-02 -0.235542D-02  0.119814D-02 -0.172254D-02  0.798384D-01
      6 -0.284161D-02  0.242717D-02 -0.729509D-03 -0.156341D-03  0.146518D-03
      7 -0.570745D-02  0.533605D-02  0.267871D-02 -0.794719D-02  0.349733D-02
      8  0.288127D-02 -0.322596D-01 -0.199808D-01 -0.981037D-03  0.109938D-02
      9  0.171203D-02 -0.223947D-01 -0.735592D-02 -0.163461D-04  0.239037D-04
     10  0.358276D-03  0.183494D-02 -0.863152D-02 -0.125368D-01  0.142486D-02
     11  0.366753D-02 -0.402284D-02 -0.507675D-02 -0.894968D-04 -0.140128D-02
     12 -0.416312D-03 -0.600386D-03 -0.366674D-02  0.110307D-01 -0.487664D-02
     13 -0.130217D-02 -0.449416D-02  0.110857D-02 -0.397137D-02 -0.165760D-02
     14 -0.453263D-02 -0.159395D-02  0.963925D-03 -0.220871D-03 -0.242810D-02
     15 -0.486726D-03 -0.243658D-02 -0.413805D-01 -0.514218D-03 -0.117352D-02
     16 -0.129527D-03 -0.519418D-02 -0.288537D-03 -0.225777D-01  0.249275D-01
     17 -0.347899D-03 -0.267927D-02  0.882763D-03  0.216603D-01 -0.311274D-01
     18 -0.450959D-03 -0.246768D-02 -0.311561D-02 -0.332138D-03  0.321845D-03
     19 -0.109372D-01 -0.174724D-01  0.286457D-02 -0.121387D-01  0.121783D-02
     20 -0.133780D-01 -0.113592D-01  0.384899D-02 -0.170641D-03 -0.126298D-02
     21  0.279771D-02  0.240619D-02 -0.513305D-02 -0.107357D-01  0.442194D-02
     22 -0.405524D-01  0.857218D-02  0.993946D-03 -0.942128D-02 -0.129690D-01
     23  0.641430D-02 -0.420615D-02 -0.248255D-02 -0.915677D-02 -0.216425D-01
     24 -0.228765D-02 -0.277108D-02  0.171533D-02 -0.770735D-02 -0.189372D-01
     25 -0.214505D-02  0.306311D-02 -0.125877D-02 -0.962797D-02 -0.128793D-01
     26 -0.150197D-02  0.194450D-02 -0.233718D-02 -0.903696D-02 -0.207201D-01
     27 -0.100330D-03  0.285358D-02 -0.320734D-02  0.797222D-02  0.188750D-01
                6             7             8             9            10 
      6  0.477167D-01
      7 -0.111080D-03  0.785651D-01
      8 -0.100540D-03 -0.264494D-02  0.857111D-01
      9 -0.380970D-02 -0.201279D-04 -0.580264D-03  0.329562D-01
     10  0.130472D-01 -0.389738D-02  0.372510D-02 -0.613397D-02  0.356525D-01
     11 -0.449620D-02  0.170753D-02 -0.144486D-02 -0.129933D-02  0.834903D-02
     12 -0.143460D-01 -0.471373D-02 -0.126980D-02 -0.669251D-02 -0.447174D-02
     13  0.270027D-02 -0.562756D-02  0.270946D-02 -0.150433D-02 -0.118819D-01
     14 -0.232688D-02  0.523200D-02 -0.306769D-01  0.231581D-01 -0.178451D-01
     15 -0.550689D-03 -0.269531D-02  0.208612D-01 -0.895228D-02 -0.263929D-02
     16 -0.355926D-03 -0.499668D-01 -0.200025D-01 -0.340946D-03 -0.805961D-03
     17  0.339305D-03 -0.170124D-01 -0.126512D-01 -0.146748D-03 -0.279844D-02
     18  0.387918D-02 -0.477701D-03 -0.173453D-03  0.467304D-02  0.222625D-02
     19 -0.125655D-01 -0.472097D-02  0.437793D-02  0.665243D-02 -0.448925D-02
     20  0.403532D-02  0.227498D-02 -0.152916D-02  0.109513D-02 -0.110724D-02
     21 -0.142996D-01  0.545772D-02  0.119383D-02 -0.721340D-02  0.975331D-03
     22 -0.906502D-02 -0.355882D-03  0.496928D-02  0.575505D-02 -0.157166D-02
     23 -0.192204D-01  0.825123D-03 -0.403705D-02 -0.217567D-02 -0.564316D-03
     24 -0.871029D-02  0.201682D-03  0.196459D-02 -0.182711D-02  0.521684D-02
     25  0.934798D-02 -0.341860D-03  0.496540D-02 -0.610379D-02 -0.827896D-03
     26  0.191957D-01  0.784317D-03 -0.421164D-02  0.231952D-02  0.698111D-02
     27 -0.915006D-02 -0.320172D-03 -0.191476D-02 -0.177830D-02  0.410894D-03
               11            12            13            14            15 
     11  0.505866D-01
     12  0.100379D-01  0.598611D-01
     13 -0.136101D-01 -0.245952D-02  0.646356D-01
     14 -0.113431D-01 -0.253437D-02  0.871364D-02  0.547538D-01
     15 -0.386579D-02 -0.498712D-02 -0.291579D-02 -0.222907D-01  0.643922D-01
     16 -0.207162D-02  0.817349D-03 -0.173637D-03 -0.520801D-02  0.447309D-03
     17 -0.132278D-01  0.923726D-02 -0.364711D-03 -0.253190D-02 -0.793028D-03
     18  0.103851D-01 -0.133792D-01  0.421289D-03  0.252640D-02 -0.316421D-02
     19 -0.117960D-02 -0.102685D-02  0.466811D-03  0.183137D-02  0.856193D-02
     20  0.344149D-02 -0.412211D-02  0.347333D-02 -0.385094D-02  0.487111D-02
     21  0.388181D-02 -0.859158D-02  0.278845D-03  0.574241D-03 -0.370295D-02
     22 -0.221692D-02 -0.476395D-03 -0.218827D-02  0.314723D-02  0.127775D-02
     23 -0.304511D-02 -0.103139D-02 -0.143118D-02  0.189068D-02  0.226805D-02
     24 -0.448254D-02 -0.290278D-02  0.175774D-03 -0.286817D-02 -0.327588D-02
     25  0.544361D-02  0.171647D-02 -0.399576D-01  0.888234D-02 -0.103565D-02
     26 -0.195430D-01 -0.484043D-02  0.666129D-02 -0.421954D-02  0.255926D-02
     27 -0.508421D-02 -0.529513D-02  0.219489D-02  0.279740D-02  0.162139D-02
               16            17            18            19            20 
     16  0.775961D-01
     17  0.314302D-02  0.812082D-01
     18  0.506586D-03 -0.520610D-03  0.249019D-01
     19 -0.687159D-03 -0.288267D-02 -0.201270D-02  0.351660D-01
     20 -0.208061D-02 -0.132167D-01 -0.100356D-01  0.773490D-02  0.494913D-01
     21 -0.736648D-03 -0.896148D-02 -0.129665D-01  0.319451D-02 -0.961645D-02
     22 -0.156626D-02 -0.700660D-03 -0.144337D-02 -0.104593D-02  0.550575D-02
     23  0.325216D-02 -0.288545D-02 -0.218480D-02  0.696248D-02 -0.188114D-01
     24 -0.139678D-02  0.266162D-03 -0.321804D-03 -0.520686D-03  0.527072D-02
     25 -0.168910D-02 -0.696547D-03  0.156274D-02 -0.161359D-02 -0.225244D-02
     26  0.323424D-02 -0.288849D-02  0.214873D-02 -0.589794D-03 -0.290231D-02
     27  0.134760D-02 -0.303625D-03 -0.506758D-03 -0.514773D-02  0.465288D-02
               21            22            23            24            25 
     21  0.604622D-01
     22 -0.173045D-02  0.569259D-01
     23  0.505056D-02 -0.702282D-02  0.564696D-01
     24 -0.546835D-02  0.525885D-02  0.208695D-01  0.398372D-01
     25  0.498706D-03 -0.224151D-03  0.721026D-03  0.105932D-02  0.564272D-01
     26  0.104937D-02  0.714976D-03 -0.373257D-02  0.687942D-03 -0.724722D-02
     27 -0.308673D-02 -0.570354D-03 -0.109330D-02 -0.190464D-01 -0.578701D-02
               26            27 
     26  0.562732D-01
     27 -0.207829D-01  0.404493D-01
 Leave Link  716 at Tue Mar  6 19:04:28 2018, MaxMem=   536870912 cpu:         0.1
 (Enter /share/apps//mg09/l103.exe)

 GradGradGradGradGradGradGradGradGradGradGradGradGradGradGradGradGradGrad
 Berny optimization.
 Search for a local minimum.
 Step number   1 out of a maximum of    2
 All quantities printed in internal units (Hartrees-Bohrs-Radians)
 Second derivative matrix not updated -- analytic derivatives used.
 ITU=  0
     Eigenvalues ---    0.00039   0.01720   0.02599   0.03402   0.03746
     Eigenvalues ---    0.04035   0.05081   0.05285   0.05456   0.05754
     Eigenvalues ---    0.06341   0.06621   0.08010   0.08774   0.10515
     Eigenvalues ---    0.10711   0.11712   0.12325   0.13634   0.14162
     Eigenvalues ---    0.15471
 Angle between quadratic step and forces=  80.15 degrees.
 Linear search not attempted -- first point.
 TrRot= -0.000110  0.000058 -0.000646 -0.952238 -0.000265  0.952242
 Variable       Old X    -DE/DX   Delta X   Delta X   Delta X     New X
                                 (Linear)    (Quad)   (Total)
    X1       -2.85172   0.00010   0.00000  -0.01449  -0.01416  -2.86588
    Y1       -1.91703   0.00003   0.00000   0.03044   0.02987  -1.88716
    Z1       -2.85070   0.00000   0.00000  -0.02126  -0.02194  -2.87264
    X2        4.73181   0.00008   0.00000   0.00077   0.00065   4.73246
    Y2        1.11419  -0.00004   0.00000  -0.00076  -0.00069   1.11350
    Z2        0.00516  -0.00001   0.00000   0.00112   0.00096   0.00613
    X3       -3.30575   0.00001   0.00000   0.00243   0.00232  -3.30343
    Y3        3.04126  -0.00004   0.00000   0.00065   0.00070   3.04196
    Z3       -0.07101   0.00001   0.00000   0.03866   0.03685  -0.03416
    X4        0.93419  -0.00015   0.00000  -0.02058  -0.02132   0.91287
    Y4        1.96787   0.00000   0.00000   0.01040   0.01132   1.97919
    Z4        4.00906   0.00001   0.00000  -0.00543  -0.00636   4.00270
    X5       -2.89474   0.00011   0.00000   0.01691   0.01636  -2.87838
    Y5       -1.81129   0.00001   0.00000  -0.03233  -0.03166  -1.84296
    Z5        2.89986  -0.00002   0.00000  -0.01960  -0.02029   2.87957
    X6        1.38682   0.00003   0.00000   0.00297   0.00285   1.38967
    Y6        5.15800   0.00011   0.00000   0.00150   0.00155   5.15955
    Z6       -0.03770   0.00001   0.00000  -0.01927  -0.02081  -0.05851
    X7        0.94173  -0.00012   0.00000   0.01213   0.01263   0.95436
    Y7        1.89246  -0.00002   0.00000  -0.00907  -0.00988   1.88258
    Z7       -4.03741  -0.00002   0.00000  -0.00355  -0.00445  -4.04186
    X8        2.60732  -0.00003   0.00000  -0.01820  -0.01786   2.58946
    Y8       -3.21030  -0.00002   0.00000  -0.00696  -0.00752  -3.21782
    Z8       -2.91088   0.00004   0.00000   0.01862   0.01907  -2.89181
    X9        2.55976  -0.00002   0.00000   0.01907   0.01851   2.57827
    Y9       -3.15358  -0.00003   0.00000   0.00560   0.00632  -3.14726
    Z9        2.97833  -0.00002   0.00000   0.01655   0.01698   2.99531
         Item               Value     Threshold  Converged?
 Maximum Force            0.000147     0.000450     YES
 RMS     Force            0.000057     0.000300     YES
 Maximum Displacement     0.036852     0.001800     NO 
 RMS     Displacement     0.016527     0.001200     NO 
 Predicted change in Energy=-2.213010D-06
 GradGradGradGradGradGradGradGradGradGradGradGradGradGradGradGradGradGrad

 Leave Link  103 at Tue Mar  6 19:04:28 2018, MaxMem=   536870912 cpu:         0.0
 (Enter /share/apps//mg09/l9999.exe)
 1\1\GINC-COMPUTE-0-1\Freq\RPBE1PBE\def2TZVP\Bi4Ge3Sn2\RODRIGO\06-Mar-2
 018\0\\#P Geom=AllCheck Guess=TCheck SCRF=Check GenChk RPBE1PBE/def2TZ
 VP Freq\\01Final_coords.xyz_54\\0,1\Bi,-1.509066404,-1.0144485811,-1.5
 085253894\Bi,2.5039639037,0.589603194,0.0027328551\Bi,-1.7493276446,1.
 6093661468,-0.0375790166\Ge,0.4943511789,1.0413511769,2.1215025448\Bi,
 -1.5318308211,-0.9584957784,1.5345418515\Ge,0.7338737621,2.7294973074,
 -0.0199483602\Ge,0.498342187,1.0014448101,-2.1365054193\Sn,1.379735100
 3,-1.6988159552,-1.5403699175\Sn,1.354568738,-1.6688023209,1.576065851
 5\\Version=ES64L-G09RevD.01\State=1-A\HF=-7517.8095496\RMSD=6.534e-09\
 RMSF=5.729e-05\ZeroPoint=0.0056743\Thermal=0.0232716\Dipole=-0.5363264
 ,-0.1685024,-0.0008406\DipoleDeriv=-0.0435618,0.0660228,0.1755234,0.02
 91711,-0.0846659,-0.0446538,0.0754883,-0.0452894,-0.0042301,0.1370698,
 0.1156979,0.0010663,0.0823164,-0.1059972,-0.0014858,-0.0009818,-0.0022
 147,0.0158808,0.0427533,-0.0587644,0.0030304,0.0517178,0.0031783,0.002
 9832,-0.0034843,0.0070288,0.0770397,0.0311034,-0.0656739,0.0655741,-0.
 0833224,-0.0024182,0.0231479,0.0339588,0.0130255,-0.0158928,-0.0474072
 ,0.0659572,-0.1770765,0.0340695,-0.0936449,0.0413763,-0.0735841,0.0412
 008,-0.0106618,-0.1767076,0.1635996,-0.0020851,0.0460016,0.1966717,-0.
 0022451,0.0000589,-0.0046451,-0.1278296,0.0282807,-0.0568075,-0.064493
 4,-0.074363,-0.006234,-0.0224449,-0.0286368,-0.0177591,-0.0107861,0.01
 55516,-0.1208897,-0.1514113,-0.0483429,0.0495598,0.1605501,-0.1406906,
 0.1451524,0.0343009,0.0129179,-0.1091421,0.1498721,-0.037248,0.0435503
 ,-0.1572279,0.1378715,-0.1364994,0.0421789\Polar=384.6408617,-10.25346
 23,383.5226424,-0.0849487,-0.0547514,372.2275834\PG=C01 [X(Bi4Ge3Sn2)]
 \NImag=0\\0.06445628,0.00863649,0.05653194,0.00207384,0.02298344,0.062
 87330,-0.00404070,-0.00028198,0.00045919,0.08226161,-0.00183904,-0.002
 35542,0.00119814,-0.00172254,0.07983835,-0.00284161,0.00242717,-0.0007
 2951,-0.00015634,0.00014652,0.04771667,-0.00570745,0.00533605,0.002678
 71,-0.00794719,0.00349733,-0.00011108,0.07856508,0.00288127,-0.0322596
 2,-0.01998077,-0.00098104,0.00109938,-0.00010054,-0.00264494,0.0857110
 6,0.00171203,-0.02239466,-0.00735592,-0.00001635,0.00002390,-0.0038097
 0,-0.00002013,-0.00058026,0.03295619,0.00035828,0.00183494,-0.00863152
 ,-0.01253677,0.00142486,0.01304721,-0.00389738,0.00372510,-0.00613397,
 0.03565252,0.00366753,-0.00402284,-0.00507675,-0.00008950,-0.00140128,
 -0.00449620,0.00170753,-0.00144486,-0.00129933,0.00834903,0.05058661,-
 0.00041631,-0.00060039,-0.00366674,0.01103072,-0.00487664,-0.01434604,
 -0.00471373,-0.00126980,-0.00669251,-0.00447174,0.01003786,0.05986113,
 -0.00130217,-0.00449416,0.00110857,-0.00397137,-0.00165760,0.00270027,
 -0.00562756,0.00270946,-0.00150433,-0.01188188,-0.01361006,-0.00245952
 ,0.06463564,-0.00453263,-0.00159395,0.00096392,-0.00022087,-0.00242810
 ,-0.00232688,0.00523200,-0.03067690,0.02315812,-0.01784505,-0.01134313
 ,-0.00253437,0.00871364,0.05475378,-0.00048673,-0.00243658,-0.04138046
 ,-0.00051422,-0.00117352,-0.00055069,-0.00269531,0.02086118,-0.0089522
 8,-0.00263929,-0.00386579,-0.00498712,-0.00291579,-0.02229067,0.064392
 21,-0.00012953,-0.00519418,-0.00028854,-0.02257767,0.02492745,-0.00035
 593,-0.04996678,-0.02000246,-0.00034095,-0.00080596,-0.00207162,0.0008
 1735,-0.00017364,-0.00520801,0.00044731,0.07759610,-0.00034790,-0.0026
 7927,0.00088276,0.02166030,-0.03112736,0.00033931,-0.01701239,-0.01265
 119,-0.00014675,-0.00279844,-0.01322784,0.00923726,-0.00036471,-0.0025
 3190,-0.00079303,0.00314302,0.08120824,-0.00045096,-0.00246768,-0.0031
 1561,-0.00033214,0.00032184,0.00387918,-0.00047770,-0.00017345,0.00467
 304,0.00222625,0.01038514,-0.01337923,0.00042129,0.00252640,-0.0031642
 1,0.00050659,-0.00052061,0.02490192,-0.01093723,-0.01747244,0.00286457
 ,-0.01213865,0.00121783,-0.01256549,-0.00472097,0.00437793,0.00665243,
 -0.00448925,-0.00117960,-0.00102685,0.00046681,0.00183137,0.00856193,-
 0.00068716,-0.00288267,-0.00201270,0.03516597,-0.01337805,-0.01135919,
 0.00384899,-0.00017064,-0.00126298,0.00403532,0.00227498,-0.00152916,0
 .00109513,-0.00110724,0.00344149,-0.00412211,0.00347333,-0.00385094,0.
 00487111,-0.00208061,-0.01321675,-0.01003558,0.00773490,0.04949127,0.0
 0279771,0.00240619,-0.00513305,-0.01073574,0.00442194,-0.01429957,0.00
 545772,0.00119383,-0.00721340,0.00097533,0.00388181,-0.00859158,0.0002
 7884,0.00057424,-0.00370295,-0.00073665,-0.00896148,-0.01296654,0.0031
 9451,-0.00961645,0.06046218,-0.04055243,0.00857218,0.00099395,-0.00942
 128,-0.01296902,-0.00906502,-0.00035588,0.00496928,0.00575505,-0.00157
 166,-0.00221692,-0.00047639,-0.00218827,0.00314723,0.00127775,-0.00156
 626,-0.00070066,-0.00144337,-0.00104593,0.00550575,-0.00173045,0.05692
 586,0.00641430,-0.00420615,-0.00248255,-0.00915677,-0.02164250,-0.0192
 2043,0.00082512,-0.00403705,-0.00217567,-0.00056432,-0.00304511,-0.001
 03139,-0.00143118,0.00189068,0.00226805,0.00325216,-0.00288545,-0.0021
 8480,0.00696248,-0.01881142,0.00505056,-0.00702282,0.05646957,-0.00228
 765,-0.00277108,0.00171533,-0.00770735,-0.01893716,-0.00871029,0.00020
 168,0.00196459,-0.00182711,0.00521684,-0.00448254,-0.00290278,0.000175
 77,-0.00286817,-0.00327588,-0.00139678,0.00026616,-0.00032180,-0.00052
 069,0.00527072,-0.00546835,0.00525885,0.02086954,0.03983724,-0.0021450
 5,0.00306311,-0.00125877,-0.00962797,-0.01287927,0.00934798,-0.0003418
 6,0.00496540,-0.00610379,-0.00082790,0.00544361,0.00171647,-0.03995756
 ,0.00888234,-0.00103565,-0.00168910,-0.00069655,0.00156274,-0.00161359
 ,-0.00225244,0.00049871,-0.00022415,0.00072103,0.00105932,0.05642719,-
 0.00150197,0.00194450,-0.00233718,-0.00903696,-0.02072010,0.01919573,0
 .00078432,-0.00421164,0.00231952,0.00698111,-0.01954303,-0.00484043,0.
 00666129,-0.00421954,0.00255926,0.00323424,-0.00288849,0.00214873,-0.0
 0058979,-0.00290231,0.00104937,0.00071498,-0.00373257,0.00068794,-0.00
 724722,0.05627319,-0.00010033,0.00285358,-0.00320734,0.00797222,0.0188
 7498,-0.00915006,-0.00032017,-0.00191476,-0.00177830,0.00041089,-0.005
 08421,-0.00529513,0.00219489,0.00279740,0.00162139,0.00134760,-0.00030
 362,-0.00050676,-0.00514773,0.00465288,-0.00308673,-0.00057035,-0.0010
 9330,-0.01904636,-0.00578701,-0.02078294,0.04044930\\-0.00009566,-0.00
 002521,-0.00000074,-0.00008335,0.00004001,0.00000814,-0.00000928,0.000
 03668,-0.00001457,0.00014693,0.00000227,-0.00000981,-0.00010590,-0.000
 00866,0.00002375,-0.00002708,-0.00011479,-0.00000609,0.00012361,0.0000
 1873,0.00001997,0.00002969,0.00002232,-0.00004354,0.00002104,0.0000286
 3,0.00002288\\\@


 IT PROBABLY IS NOT POSSIBLE FOR A SCIENTIST TO INTERROGATE NATURE 
 FROM A WHOLLY DISINTERESTED VIEWPOINT.
 EVEN IF HE HAS NO PARTICULAR AXE TO GRIND, HE IS LIKELY TO HAVE 
 A DISTINCTIVE WAY OF VIEWING NATURE.

                                                   -- JOHN LOSEE
 Job cpu time:       0 days  4 hours 31 minutes 34.3 seconds.
 File lengths (MBytes):  RWF=    299 Int=      0 D2E=      0 Chk=     16 Scr=      1
 Normal termination of Gaussian 09 at Tue Mar  6 19:04:30 2018.
