 Entering Gaussian System, Link 0=/share/apps/mg09/g09
 Initial command:
 /share/apps//mg09/l1.exe "/state/partition1/gauss_tmp/Gau-30784.inp" -scrdir="/state/partition1/gauss_tmp/"
 Entering Link 1 = /share/apps//mg09/l1.exe PID=     30796.
  
 Copyright (c) 1988,1990,1992,1993,1995,1998,2003,2009,2013,
            Gaussian, Inc.  All Rights Reserved.
  
 This is part of the Gaussian(R) 09 program.  It is based on
 the Gaussian(R) 03 system (copyright 2003, Gaussian, Inc.),
 the Gaussian(R) 98 system (copyright 1998, Gaussian, Inc.),
 the Gaussian(R) 94 system (copyright 1995, Gaussian, Inc.),
 the Gaussian 92(TM) system (copyright 1992, Gaussian, Inc.),
 the Gaussian 90(TM) system (copyright 1990, Gaussian, Inc.),
 the Gaussian 88(TM) system (copyright 1988, Gaussian, Inc.),
 the Gaussian 86(TM) system (copyright 1986, Carnegie Mellon
 University), and the Gaussian 82(TM) system (copyright 1983,
 Carnegie Mellon University). Gaussian is a federally registered
 trademark of Gaussian, Inc.
  
 This software contains proprietary and confidential information,
 including trade secrets, belonging to Gaussian, Inc.
  
 This software is provided under written license and may be
 used, copied, transmitted, or stored only in accord with that
 written license.
  
 The following legend is applicable only to US Government
 contracts under FAR:
  
                    RESTRICTED RIGHTS LEGEND
  
 Use, reproduction and disclosure by the US Government is
 subject to restrictions as set forth in subparagraphs (a)
 and (c) of the Commercial Computer Software - Restricted
 Rights clause in FAR 52.227-19.
  
 Gaussian, Inc.
 340 Quinnipiac St., Bldg. 40, Wallingford CT 06492
  
  
 ---------------------------------------------------------------
 Warning -- This program may not be used in any manner that
 competes with the business of Gaussian, Inc. or will provide
 assistance to any competitor of Gaussian, Inc.  The licensee
 of this program is prohibited from giving any competitor of
 Gaussian, Inc. access to this program.  By using this program,
 the user acknowledges that Gaussian, Inc. is engaged in the
 business of creating and licensing software in the field of
 computational chemistry and represents and warrants to the
 licensee that it is not a competitor of Gaussian, Inc. and that
 it will not use this program in any manner prohibited above.
 ---------------------------------------------------------------
  

 Cite this work as:
 Gaussian 09, Revision D.01,
 M. J. Frisch, G. W. Trucks, H. B. Schlegel, G. E. Scuseria, 
 M. A. Robb, J. R. Cheeseman, G. Scalmani, V. Barone, B. Mennucci, 
 G. A. Petersson, H. Nakatsuji, M. Caricato, X. Li, H. P. Hratchian, 
 A. F. Izmaylov, J. Bloino, G. Zheng, J. L. Sonnenberg, M. Hada, 
 M. Ehara, K. Toyota, R. Fukuda, J. Hasegawa, M. Ishida, T. Nakajima, 
 Y. Honda, O. Kitao, H. Nakai, T. Vreven, J. A. Montgomery, Jr., 
 J. E. Peralta, F. Ogliaro, M. Bearpark, J. J. Heyd, E. Brothers, 
 K. N. Kudin, V. N. Staroverov, T. Keith, R. Kobayashi, J. Normand, 
 K. Raghavachari, A. Rendell, J. C. Burant, S. S. Iyengar, J. Tomasi, 
 M. Cossi, N. Rega, J. M. Millam, M. Klene, J. E. Knox, J. B. Cross, 
 V. Bakken, C. Adamo, J. Jaramillo, R. Gomperts, R. E. Stratmann, 
 O. Yazyev, A. J. Austin, R. Cammi, C. Pomelli, J. W. Ochterski, 
 R. L. Martin, K. Morokuma, V. G. Zakrzewski, G. A. Voth, 
 P. Salvador, J. J. Dannenberg, S. Dapprich, A. D. Daniels, 
 O. Farkas, J. B. Foresman, J. V. Ortiz, J. Cioslowski, 
 and D. J. Fox, Gaussian, Inc., Wallingford CT, 2013.
 
 ******************************************
 Gaussian 09:  ES64L-G09RevD.01 24-Apr-2013
                 6-Mar-2018 
 ******************************************
 %NProcShared=4
 Will use up to    4 processors via shared memory.
 %LindaWorkers=compute-0-0
 %chk=Isomer_25.chk
 %NProc=4
 Will use up to    4 processors via shared memory.
 %mem=4GB
 SetLPE:  input flags=" -vv -opt "Tsnet.Node.lindarsharg: ssh" "
 SetLPE:    new flags=" -vv -opt "Tsnet.Node.lindarsharg: ssh"  -nodelist 'compute-0-0.local'"
 Will use up to    1 processors via Linda.
 ----------------------------------------------------------------------
 #p PBE1PBE/Def2TZVP scf=(maxcycle=768) opt=(cartesian,maxcycle=512) fr
 eq
 ----------------------------------------------------------------------
 1/6=512,10=7,14=-1,18=10,26=3,38=1/1,3;
 2/12=2,17=6,18=5,29=2,40=1/2;
 3/5=44,7=101,11=2,16=1,25=1,30=1,71=1,74=-13/1,2,3;
 4//1;
 5/5=2,7=768,38=5/2;
 6/7=2,8=2,9=2,10=2,28=1/1;
 7/7=1,29=1/1,2,3,16;
 1/6=512,10=7,14=-1,18=10,26=3/3(2);
 2/29=1/2;
 99/12=1/99;
 2/29=1/2;
 3/5=44,7=101,11=2,16=1,25=1,30=1,71=1,74=-13/1,2,3;
 4/5=5,16=3,69=1/1;
 5/5=2,7=768,38=5/2;
 7/7=1/1,2,3,16;
 1/6=512,14=-1,18=10,26=3/3(-5);
 2/29=1/2;
 6/7=2,8=2,9=2,10=2,19=2,28=1/1;
 99/9=1,12=1/99;
 Leave Link    1 at Tue Mar  6 11:56:29 2018, MaxMem=   536870912 cpu:         0.6
 (Enter /share/apps//mg09/l101.exe)
 ---------------------
 01Final_coords.xyz_25
 ---------------------
 Symbolic Z-matrix:
 Charge =  0 Multiplicity = 1
 32                    0.6143    1.94662   1.70375 
 83                    0.64587  -1.8626   -1.08638 
 50                   -2.24554   1.6113    0.77192 
 83                    1.7768   -0.75044   1.53216 
 32                   -0.18081   2.86819  -0.80112 
 83                   -2.09419  -1.3689    0.10145 
 50                   -1.16827   0.47695  -2.20212 
 83                    1.894     0.96938  -1.01606 
 32                   -0.86396  -0.26386   2.5481 
 
 NAtoms=      9 NQM=        9 NQMF=       0 NMMI=      0 NMMIF=      0
                NMic=       0 NMicF=      0.
                    Isotopes and Nuclear Properties:
 (Nuclear quadrupole moments (NQMom) in fm**2, nuclear magnetic moments (NMagM)
  in nuclear magnetons)

  Atom         1           2           3           4           5           6           7           8           9
 IAtWgt=          74         209         118         209          74         209         118         209          74
 AtmWgt=  73.9211788 208.9804000 117.9018000 208.9804000  73.9211788 208.9804000 117.9018000 208.9804000  73.9211788
 NucSpn=           0           9           0           9           0           9           0           9           0
 AtZEff=   0.0000000   0.0000000   0.0000000   0.0000000   0.0000000   0.0000000   0.0000000   0.0000000   0.0000000
 NQMom=    0.0000000 -51.6000000   0.0000000 -51.6000000   0.0000000 -51.6000000   0.0000000 -51.6000000   0.0000000
 NMagM=    0.0000000   4.1106000   0.0000000   4.1106000   0.0000000   4.1106000   0.0000000   4.1106000   0.0000000
 AtZNuc=  32.0000000  83.0000000  50.0000000  83.0000000  32.0000000  83.0000000  50.0000000  83.0000000  32.0000000
 Leave Link  101 at Tue Mar  6 11:56:38 2018, MaxMem=   536870912 cpu:         0.6
 (Enter /share/apps//mg09/l103.exe)

 GradGradGradGradGradGradGradGradGradGradGradGradGradGradGradGradGradGrad
 Berny optimization.
 Initialization pass.
 No Z-matrix variables, so optimization will use Cartesian coordinates.
 Trust Radius=3.00D-01 FncErr=1.00D-07 GrdErr=1.00D-06
 Number of steps in this run=    100 maximum allowed number of steps=    100.
 GradGradGradGradGradGradGradGradGradGradGradGradGradGradGradGradGradGrad

 Leave Link  103 at Tue Mar  6 11:56:54 2018, MaxMem=   536870912 cpu:         0.1
 (Enter /share/apps//mg09/l202.exe)
 ---------------------------------------------------------------------------------------------------
                            Z-MATRIX (ANGSTROMS AND DEGREES)
   CD    Cent   Atom    N1       Length/X        N2       Alpha/Y        N3        Beta/Z          J
 ---------------------------------------------------------------------------------------------------
      1      1  Ge       0   0.614296          1.946617          1.703748
      2      2  Bi       0   0.645874         -1.862600         -1.086384
      3      3  Sn       0  -2.245545          1.611298          0.771922
      4      4  Bi       0   1.776803         -0.750440          1.532163
      5      5  Ge       0  -0.180810          2.868193         -0.801123
      6      6  Bi       0  -2.094194         -1.368902          0.101450
      7      7  Sn       0  -1.168274          0.476954         -2.202120
      8      8  Bi       0   1.894001          0.969376         -1.016065
      9      9  Ge       0  -0.863960         -0.263859          2.548104
 ---------------------------------------------------------------------------------------------------
                         Z-Matrix orientation:                         
 ---------------------------------------------------------------------
 Center     Atomic      Atomic             Coordinates (Angstroms)
 Number     Number       Type             X           Y           Z
 ---------------------------------------------------------------------
      1         32           0        0.614296    1.946617    1.703748
      2         83           0        0.645874   -1.862600   -1.086384
      3         50           0       -2.245545    1.611298    0.771922
      4         83           0        1.776803   -0.750440    1.532163
      5         32           0       -0.180810    2.868193   -0.801123
      6         83           0       -2.094194   -1.368902    0.101450
      7         50           0       -1.168274    0.476954   -2.202120
      8         83           0        1.894001    0.969376   -1.016065
      9         32           0       -0.863960   -0.263859    2.548104
 ---------------------------------------------------------------------
                    Distance matrix (angstroms):
                    1          2          3          4          5
     1  Ge   0.000000
     2  Bi   4.721861   0.000000
     3  Sn   3.026455   4.886878   0.000000
     4  Bi   2.941935   3.061485   4.725998   0.000000
     5  Ge   2.784937   4.810944   2.883988   4.729797   0.000000
     6  Bi   4.571208   3.026989   3.058436   4.173015   4.735890
     7  Sn   4.537981   3.163781   3.360383   4.911705   2.942091
     8  Bi   3.160700   3.095618   4.554646   3.076519   2.820735
     9  Ge   2.790051   4.247949   2.929132   2.870980   4.636137
                    6          7          8          9
     6  Bi   0.000000
     7  Sn   3.093695   0.000000
     8  Bi   4.756268   3.320653   0.000000
     9  Ge   2.953085   4.817265   4.672314   0.000000
 Stoichiometry    Bi4Ge3Sn2
 Framework group  C1[X(Bi4Ge3Sn2)]
 Deg. of freedom    21
 Full point group                 C1      NOp   1
 Largest Abelian subgroup         C1      NOp   1
 Largest concise Abelian subgroup C1      NOp   1
                         Standard orientation:                         
 ---------------------------------------------------------------------
 Center     Atomic      Atomic             Coordinates (Angstroms)
 Number     Number       Type             X           Y           Z
 ---------------------------------------------------------------------
      1         32           0        0.614297    1.946617    1.703748
      2         83           0        0.645873   -1.862600   -1.086384
      3         50           0       -2.245544    1.611299    0.771922
      4         83           0        1.776803   -0.750441    1.532163
      5         32           0       -0.180809    2.868193   -0.801123
      6         83           0       -2.094195   -1.368901    0.101450
      7         50           0       -1.168274    0.476954   -2.202120
      8         83           0        1.894001    0.969375   -1.016065
      9         32           0       -0.863960   -0.263859    2.548104
 ---------------------------------------------------------------------
 Rotational constants (GHZ):      0.1012189      0.0903491      0.0855317
 Leave Link  202 at Tue Mar  6 11:56:56 2018, MaxMem=   536870912 cpu:         0.1
 (Enter /share/apps//mg09/l301.exe)
 Standard basis: def2TZVP (5D, 7F)
 Ernie: Thresh=  0.10000D-02 Tol=  0.10000D-05 Strict=F.
 There are   519 symmetry adapted cartesian basis functions of A   symmetry.
 There are   444 symmetry adapted basis functions of A   symmetry.
   444 basis functions,   963 primitive gaussians,   519 cartesian basis functions
   116 alpha electrons      116 beta electrons
       nuclear repulsion energy      3552.3007677946 Hartrees.
 IExCor= 1009 DFT=T Ex+Corr=PBE1PBE ExCW=0 ScaHFX=  0.250000
 ScaDFX=  0.750000  0.750000  1.000000  1.000000 ScalE2=  1.000000  1.000000
 IRadAn=      0 IRanWt=     -1 IRanGd=            0 ICorTp=0 IEmpDi=  4
 NAtoms=    9 NActive=    9 NUniq=    9 SFac= 1.00D+00 NAtFMM=   60 NAOKFM=F Big=F
 Integral buffers will be    131072 words long.
 Raffenetti 2 integral format.
 Two-electron integral symmetry is turned on.
 Leave Link  301 at Tue Mar  6 11:57:10 2018, MaxMem=   536870912 cpu:         0.4
 (Enter /share/apps//mg09/l302.exe)
 NPDir=0 NMtPBC=     1 NCelOv=     1 NCel=       1 NClECP=     1 NCelD=      1
         NCelK=      1 NCelE2=     1 NClLst=     1 CellRange=     0.0.
 One-electron integrals computed using PRISM.
   1 Symmetry operations used in ECPInt.
 ECPInt:  NShTT=   10440 NPrTT=   41973 LenC2=    9670 LenP2D=   27419.
 LDataN:  DoStor=T MaxTD1= 8 Len=  415
 NBasis=   444 RedAO= T EigKep=  1.52D-03  NBF=   444
 NBsUse=   444 1.00D-06 EigRej= -1.00D+00 NBFU=   444
 Precomputing XC quadrature grid using
 IXCGrd= 4 IRadAn=           0 IRanWt=          -1 IRanGd=           0 AccXCQ= 0.00D+00.
 Defaulting to unpruned grid for atomic number  83.
 Defaulting to unpruned grid for atomic number  50.
 Defaulting to unpruned grid for atomic number  83.
 Generated NRdTot=       0 NPtTot=           0 NUsed=           0 NTot=          32
 NSgBfM=   504   504   504   504   504 MxSgAt=     9 MxSgA2=     9.
 Leave Link  302 at Tue Mar  6 11:57:27 2018, MaxMem=   536870912 cpu:        30.9
 (Enter /share/apps//mg09/l303.exe)
 DipDrv:  MaxL=1.
 Leave Link  303 at Tue Mar  6 11:57:34 2018, MaxMem=   536870912 cpu:         0.5
 (Enter /share/apps//mg09/l401.exe)
 ExpMin= 4.62D-02 ExpMax= 4.66D+05 ExpMxC= 4.50D+03 IAcc=2 IRadAn=         4 AccDes= 0.00D+00
 Harris functional with IExCor= 1009 and IRadAn=       4 diagonalized for initial guess.
 HarFok:  IExCor= 1009 AccDes= 0.00D+00 IRadAn=         4 IDoV= 1 UseB2=F ITyADJ=14
 ICtDFT=  3500011 ScaDFX=  1.000000  1.000000  1.000000  1.000000
 Defaulting to unpruned grid for atomic number  83.
 Defaulting to unpruned grid for atomic number  83.
 Defaulting to unpruned grid for atomic number  83.
 Defaulting to unpruned grid for atomic number  83.
 FoFCou: FMM=F IPFlag=           0 FMFlag=      100000 FMFlg1=           0
         NFxFlg=           0 DoJE=T BraDBF=F KetDBF=T FulRan=T
         wScrn=  0.000000 ICntrl=     500 IOpCl=  0 I1Cent=   200000004 NGrid=           0
         NMat0=    1 NMatS0=      1 NMatT0=    0 NMatD0=    1 NMtDS0=    0 NMtDT0=    0
 Petite list used in FoFCou.
 Harris En= -7518.62123679508    
 JPrj=0 DoOrth=F DoCkMO=F.
 Leave Link  401 at Tue Mar  6 11:57:44 2018, MaxMem=   536870912 cpu:        12.7
 (Enter /share/apps//mg09/l502.exe)
 Closed shell SCF:
 Using DIIS extrapolation, IDIIS=  1040.
 Integral symmetry usage will be decided dynamically.
 IVT=     1410107 IEndB=     1410107 NGot=   536870912 MDV=   536322046
 LenX=   536322046 LenY=   536052166
 Requested convergence on RMS density matrix=1.00D-08 within 768 cycles.
 Requested convergence on MAX density matrix=1.00D-06.
 Requested convergence on             energy=1.00D-06.
 No special actions if energy rises.
 Fock matrices will be formed incrementally for  20 cycles.

 Cycle   1  Pass 1  IDiag  1:
 FoFJK:  IHMeth= 1 ICntrl=       0 DoSepK=F KAlg= 0 I1Cent=   0 FoldK=F
 IRaf= 880000000 NMat=   1 IRICut=       1 DoRegI=T DoRafI=F ISym2E= 0.
 FoFCou: FMM=F IPFlag=           0 FMFlag=      100000 FMFlg1=           0
         NFxFlg=           0 DoJE=F BraDBF=F KetDBF=F FulRan=T
         wScrn=  0.000000 ICntrl=       0 IOpCl=  0 I1Cent=           0 NGrid=           0
         NMat0=    1 NMatS0=      1 NMatT0=    0 NMatD0=    1 NMtDS0=    0 NMtDT0=    0
 Symmetry not used in FoFCou.
 Defaulting to unpruned grid for atomic number  83.
 Defaulting to unpruned grid for atomic number  83.
 Defaulting to unpruned grid for atomic number  83.
 Defaulting to unpruned grid for atomic number  83.
 E= -7517.15970603747    
 DIIS: error= 2.93D-02 at cycle   1 NSaved=   1.
 NSaved= 1 IEnMin= 1 EnMin= -7517.15970603747     IErMin= 1 ErrMin= 2.93D-02
 ErrMax= 2.93D-02  0.00D+00 EMaxC= 1.00D-01 BMatC= 1.52D+00 BMatP= 1.52D+00
 IDIUse=3 WtCom= 7.07D-01 WtEn= 2.93D-01
 Coeff-Com:  0.100D+01
 Coeff-En:   0.100D+01
 Coeff:      0.100D+01
 Gap=     0.134 Goal=   None    Shift=    0.000
 GapD=    0.134 DampG=1.000 DampE=0.500 DampFc=0.5000 IDamp=-1.
 Damping current iteration by 5.00D-01
 RMSDP=6.85D-03 MaxDP=3.56D-01              OVMax= 8.24D-01

 Cycle   2  Pass 1  IDiag  1:
 RMSU=  3.42D-03    CP:  1.01D+00
 E= -7516.42849495803     Delta-E=        0.731211079439 Rises=F Damp=T
 DIIS: error= 1.77D-02 at cycle   2 NSaved=   2.
 NSaved= 2 IEnMin= 1 EnMin= -7517.15970603747     IErMin= 2 ErrMin= 1.77D-02
 ErrMax= 1.77D-02  0.00D+00 EMaxC= 1.00D-01 BMatC= 5.33D-01 BMatP= 1.52D+00
 IDIUse=3 WtCom= 8.23D-01 WtEn= 1.77D-01
 Coeff-Com:  0.277D+00 0.723D+00
 Coeff-En:   0.711D+00 0.289D+00
 Coeff:      0.354D+00 0.646D+00
 Gap=     0.036 Goal=   None    Shift=    0.000
 RMSDP=4.69D-03 MaxDP=2.32D-01 DE= 7.31D-01 OVMax= 8.04D-01

 Cycle   3  Pass 1  IDiag  1:
 RMSU=  3.45D-03    CP:  1.00D+00  7.01D-02
 E= -7514.89615372662     Delta-E=        1.532341231408 Rises=F Damp=F
 DIIS: error= 4.34D-02 at cycle   3 NSaved=   3.
 NSaved= 3 IEnMin= 1 EnMin= -7517.15970603747     IErMin= 2 ErrMin= 1.77D-02
 ErrMax= 4.34D-02  0.00D+00 EMaxC= 1.00D-01 BMatC= 2.17D+00 BMatP= 5.33D-01
 IDIUse=2 WtCom= 0.00D+00 WtEn= 1.00D+00
 Rare condition: small coef for last iteration:  0.000D+00
 Coeff-En:   0.544D+00 0.293D+00 0.163D+00
 Coeff:      0.544D+00 0.293D+00 0.163D+00
 Gap=     0.203 Goal=   None    Shift=    0.000
 RMSDP=5.46D-03 MaxDP=2.38D-01 DE= 1.53D+00 OVMax= 5.78D-01

 Cycle   4  Pass 1  IDiag  1:
 RMSU=  1.88D-03    CP:  1.01D+00  1.13D+00 -4.26D-02
 E= -7516.44914070577     Delta-E=       -1.552986979148 Rises=F Damp=F
 DIIS: error= 2.56D-02 at cycle   4 NSaved=   4.
 NSaved= 4 IEnMin= 1 EnMin= -7517.15970603747     IErMin= 2 ErrMin= 1.77D-02
 ErrMax= 2.56D-02  0.00D+00 EMaxC= 1.00D-01 BMatC= 1.12D+00 BMatP= 5.33D-01
 IDIUse=2 WtCom= 0.00D+00 WtEn= 1.00D+00
 EnCoef did     8 forward-backward iterations
 Coeff-En:   0.546D+00 0.000D+00 0.671D-01 0.386D+00
 Coeff:      0.546D+00 0.000D+00 0.671D-01 0.386D+00
 Gap=     0.110 Goal=   None    Shift=    0.000
 RMSDP=3.18D-03 MaxDP=1.37D-01 DE=-1.55D+00 OVMax= 4.22D-01

 Cycle   5  Pass 1  IDiag  1:
 RMSU=  1.30D-03    CP:  1.01D+00  4.21D-01  3.45D-01  5.71D-01
 E= -7517.63798971904     Delta-E=       -1.188849013266 Rises=F Damp=F
 DIIS: error= 1.03D-02 at cycle   5 NSaved=   5.
 NSaved= 5 IEnMin= 5 EnMin= -7517.63798971904     IErMin= 5 ErrMin= 1.03D-02
 ErrMax= 1.03D-02  0.00D+00 EMaxC= 1.00D-01 BMatC= 2.20D-01 BMatP= 5.33D-01
 IDIUse=3 WtCom= 8.97D-01 WtEn= 1.03D-01
 EnCoef did     4 forward-backward iterations
 Coeff-Com:  0.387D+00-0.437D+00-0.141D+00 0.459D+00 0.733D+00
 Coeff-En:   0.363D-01 0.000D+00 0.000D+00 0.141D+00 0.822D+00
 Coeff:      0.351D+00-0.392D+00-0.127D+00 0.426D+00 0.742D+00
 Gap=     0.134 Goal=   None    Shift=    0.000
 RMSDP=1.49D-03 MaxDP=6.62D-02 DE=-1.19D+00 OVMax= 1.78D-01

 Cycle   6  Pass 1  IDiag  1:
 RMSU=  6.67D-04    CP:  1.00D+00  4.62D-01  3.92D-02  6.92D-01  4.20D-01
 E= -7517.75146732420     Delta-E=       -0.113477605157 Rises=F Damp=F
 DIIS: error= 5.47D-03 at cycle   6 NSaved=   6.
 NSaved= 6 IEnMin= 6 EnMin= -7517.75146732420     IErMin= 6 ErrMin= 5.47D-03
 ErrMax= 5.47D-03  0.00D+00 EMaxC= 1.00D-01 BMatC= 5.51D-02 BMatP= 2.20D-01
 IDIUse=3 WtCom= 9.45D-01 WtEn= 5.47D-02
 Coeff-Com:  0.889D-01-0.396D-01-0.517D-01 0.281D-01 0.437D+00 0.537D+00
 Coeff-En:   0.000D+00 0.000D+00 0.000D+00 0.000D+00 0.320D+00 0.680D+00
 Coeff:      0.840D-01-0.375D-01-0.489D-01 0.265D-01 0.431D+00 0.545D+00
 Gap=     0.132 Goal=   None    Shift=    0.000
 RMSDP=8.11D-04 MaxDP=3.48D-02 DE=-1.13D-01 OVMax= 9.51D-02

 Cycle   7  Pass 1  IDiag  1:
 RMSU=  3.90D-04    CP:  1.00D+00  4.10D-01  1.14D-01  6.09D-01  7.06D-01
                    CP:  2.68D-01
 E= -7517.79859194326     Delta-E=       -0.047124619061 Rises=F Damp=F
 DIIS: error= 3.11D-03 at cycle   7 NSaved=   7.
 NSaved= 7 IEnMin= 7 EnMin= -7517.79859194326     IErMin= 7 ErrMin= 3.11D-03
 ErrMax= 3.11D-03  0.00D+00 EMaxC= 1.00D-01 BMatC= 1.32D-02 BMatP= 5.51D-02
 IDIUse=3 WtCom= 9.69D-01 WtEn= 3.11D-02
 Coeff-Com:  0.156D-01 0.145D-01-0.109D-01-0.215D-01 0.208D+00 0.419D+00
 Coeff-Com:  0.375D+00
 Coeff-En:   0.000D+00 0.000D+00 0.000D+00 0.000D+00 0.000D+00 0.250D+00
 Coeff-En:   0.750D+00
 Coeff:      0.151D-01 0.141D-01-0.106D-01-0.208D-01 0.202D+00 0.413D+00
 Coeff:      0.387D+00
 Gap=     0.127 Goal=   None    Shift=    0.000
 RMSDP=3.87D-04 MaxDP=1.66D-02 DE=-4.71D-02 OVMax= 4.56D-02

 Cycle   8  Pass 1  IDiag  1:
 RMSU=  1.80D-04    CP:  1.00D+00  4.06D-01  1.22D-01  6.09D-01  6.63D-01
                    CP:  5.58D-01  2.93D-01
 E= -7517.81256848062     Delta-E=       -0.013976537361 Rises=F Damp=F
 DIIS: error= 1.40D-03 at cycle   8 NSaved=   8.
 NSaved= 8 IEnMin= 8 EnMin= -7517.81256848062     IErMin= 8 ErrMin= 1.40D-03
 ErrMax= 1.40D-03  0.00D+00 EMaxC= 1.00D-01 BMatC= 2.51D-03 BMatP= 1.32D-02
 IDIUse=3 WtCom= 9.86D-01 WtEn= 1.40D-02
 Coeff-Com: -0.378D-02 0.157D-01-0.252D-03-0.172D-01 0.773D-01 0.227D+00
 Coeff-Com:  0.315D+00 0.387D+00
 Coeff-En:   0.000D+00 0.000D+00 0.000D+00 0.000D+00 0.000D+00 0.000D+00
 Coeff-En:   0.198D+00 0.802D+00
 Coeff:     -0.373D-02 0.155D-01-0.249D-03-0.170D-01 0.762D-01 0.224D+00
 Coeff:      0.313D+00 0.392D+00
 Gap=     0.122 Goal=   None    Shift=    0.000
 RMSDP=1.44D-04 MaxDP=6.75D-03 DE=-1.40D-02 OVMax= 1.46D-02

 Cycle   9  Pass 1  IDiag  1:
 RMSU=  5.10D-05    CP:  1.00D+00  4.11D-01  1.18D-01  6.11D-01  6.64D-01
                    CP:  5.46D-01  4.47D-01  3.52D-01
 E= -7517.81554227032     Delta-E=       -0.002973789708 Rises=F Damp=F
 DIIS: error= 3.07D-04 at cycle   9 NSaved=   9.
 NSaved= 9 IEnMin= 9 EnMin= -7517.81554227032     IErMin= 9 ErrMin= 3.07D-04
 ErrMax= 3.07D-04  0.00D+00 EMaxC= 1.00D-01 BMatC= 1.30D-04 BMatP= 2.51D-03
 IDIUse=3 WtCom= 9.97D-01 WtEn= 3.07D-03
 Coeff-Com: -0.342D-02 0.488D-02 0.186D-04-0.415D-02 0.188D-01 0.783D-01
 Coeff-Com:  0.138D+00 0.235D+00 0.533D+00
 Coeff-En:   0.000D+00 0.000D+00 0.000D+00 0.000D+00 0.000D+00 0.000D+00
 Coeff-En:   0.000D+00 0.000D+00 0.100D+01
 Coeff:     -0.341D-02 0.487D-02 0.185D-04-0.414D-02 0.187D-01 0.781D-01
 Coeff:      0.138D+00 0.234D+00 0.534D+00
 Gap=     0.122 Goal=   None    Shift=    0.000
 RMSDP=3.72D-05 MaxDP=3.02D-03 DE=-2.97D-03 OVMax= 4.50D-03

 Cycle  10  Pass 1  IDiag  1:
 RMSU=  2.19D-05    CP:  1.00D+00  4.14D-01  1.15D-01  6.15D-01  6.66D-01
                    CP:  5.41D-01  4.59D-01  4.43D-01  6.11D-01
 E= -7517.81566477461     Delta-E=       -0.000122504289 Rises=F Damp=F
 DIIS: error= 1.45D-04 at cycle  10 NSaved=  10.
 NSaved=10 IEnMin=10 EnMin= -7517.81566477461     IErMin=10 ErrMin= 1.45D-04
 ErrMax= 1.45D-04  0.00D+00 EMaxC= 1.00D-01 BMatC= 2.28D-05 BMatP= 1.30D-04
 IDIUse=3 WtCom= 9.99D-01 WtEn= 1.45D-03
 Coeff-Com: -0.201D-02 0.249D-02-0.104D-05-0.147D-02 0.543D-02 0.319D-01
 Coeff-Com:  0.626D-01 0.122D+00 0.355D+00 0.424D+00
 Coeff-En:   0.000D+00 0.000D+00 0.000D+00 0.000D+00 0.000D+00 0.000D+00
 Coeff-En:   0.000D+00 0.000D+00 0.134D+00 0.866D+00
 Coeff:     -0.200D-02 0.249D-02-0.104D-05-0.147D-02 0.542D-02 0.318D-01
 Coeff:      0.625D-01 0.122D+00 0.355D+00 0.425D+00
 Gap=     0.122 Goal=   None    Shift=    0.000
 RMSDP=2.07D-05 MaxDP=8.04D-04 DE=-1.23D-04 OVMax= 2.42D-03

 Cycle  11  Pass 1  IDiag  1:
 RMSU=  1.16D-05    CP:  1.00D+00  4.13D-01  1.16D-01  6.16D-01  6.66D-01
                    CP:  5.44D-01  4.63D-01  4.53D-01  7.26D-01  2.87D-01
 E= -7517.81568056510     Delta-E=       -0.000015790491 Rises=F Damp=F
 DIIS: error= 1.02D-04 at cycle  11 NSaved=  11.
 NSaved=11 IEnMin=11 EnMin= -7517.81568056510     IErMin=11 ErrMin= 1.02D-04
 ErrMax= 1.02D-04  0.00D+00 EMaxC= 1.00D-01 BMatC= 1.15D-05 BMatP= 2.28D-05
 IDIUse=3 WtCom= 9.99D-01 WtEn= 1.02D-03
 Coeff-Com: -0.964D-03 0.134D-02-0.827D-04-0.405D-03-0.149D-02 0.327D-02
 Coeff-Com:  0.121D-01 0.367D-01 0.156D+00 0.384D+00 0.410D+00
 Coeff-En:   0.000D+00 0.000D+00 0.000D+00 0.000D+00 0.000D+00 0.000D+00
 Coeff-En:   0.000D+00 0.000D+00 0.000D+00 0.371D+00 0.629D+00
 Coeff:     -0.963D-03 0.134D-02-0.826D-04-0.405D-03-0.149D-02 0.327D-02
 Coeff:      0.121D-01 0.367D-01 0.155D+00 0.384D+00 0.410D+00
 Gap=     0.122 Goal=   None    Shift=    0.000
 RMSDP=8.67D-06 MaxDP=3.65D-04 DE=-1.58D-05 OVMax= 1.01D-03

 Cycle  12  Pass 1  IDiag  1:
 RMSU=  2.77D-06    CP:  1.00D+00  4.13D-01  1.16D-01  6.15D-01  6.67D-01
                    CP:  5.44D-01  4.62D-01  4.58D-01  7.15D-01  5.54D-01
                    CP:  5.59D-01
 E= -7517.81569438782     Delta-E=       -0.000013822715 Rises=F Damp=F
 DIIS: error= 2.63D-05 at cycle  12 NSaved=  12.
 NSaved=12 IEnMin=12 EnMin= -7517.81569438782     IErMin=12 ErrMin= 2.63D-05
 ErrMax= 2.63D-05  0.00D+00 EMaxC= 1.00D-01 BMatC= 6.48D-07 BMatP= 1.15D-05
 IDIUse=1 WtCom= 1.00D+00 WtEn= 0.00D+00
 Coeff-Com: -0.359D-03 0.598D-03-0.359D-04-0.103D-03-0.158D-02-0.113D-02
 Coeff-Com: -0.135D-02-0.195D-03 0.248D-01 0.131D+00 0.164D+00 0.685D+00
 Coeff:     -0.359D-03 0.598D-03-0.359D-04-0.103D-03-0.158D-02-0.113D-02
 Coeff:     -0.135D-02-0.195D-03 0.248D-01 0.131D+00 0.164D+00 0.685D+00
 Gap=     0.122 Goal=   None    Shift=    0.000
 RMSDP=1.87D-06 MaxDP=8.49D-05 DE=-1.38D-05 OVMax= 2.16D-04

 Cycle  13  Pass 1  IDiag  1:
 RMSU=  1.08D-06    CP:  1.00D+00  4.13D-01  1.15D-01  6.15D-01  6.67D-01
                    CP:  5.45D-01  4.63D-01  4.59D-01  7.22D-01  5.79D-01
                    CP:  5.97D-01  8.66D-01
 E= -7517.81569516830     Delta-E=       -0.000000780481 Rises=F Damp=F
 DIIS: error= 6.85D-06 at cycle  13 NSaved=  13.
 NSaved=13 IEnMin=13 EnMin= -7517.81569516830     IErMin=13 ErrMin= 6.85D-06
 ErrMax= 6.85D-06  0.00D+00 EMaxC= 1.00D-01 BMatC= 9.75D-08 BMatP= 6.48D-07
 IDIUse=1 WtCom= 1.00D+00 WtEn= 0.00D+00
 Coeff-Com: -0.974D-04 0.178D-03-0.640D-05-0.262D-04-0.496D-03-0.218D-03
 Coeff-Com: -0.138D-02-0.543D-02-0.994D-02 0.155D-02 0.513D-02 0.258D+00
 Coeff-Com:  0.752D+00
 Coeff:     -0.974D-04 0.178D-03-0.640D-05-0.262D-04-0.496D-03-0.218D-03
 Coeff:     -0.138D-02-0.543D-02-0.994D-02 0.155D-02 0.513D-02 0.258D+00
 Coeff:      0.752D+00
 Gap=     0.122 Goal=   None    Shift=    0.000
 RMSDP=9.06D-07 MaxDP=4.94D-05 DE=-7.80D-07 OVMax= 9.39D-05

 Cycle  14  Pass 1  IDiag  1:
 RMSU=  4.02D-07    CP:  1.00D+00  4.13D-01  1.15D-01  6.15D-01  6.67D-01
                    CP:  5.45D-01  4.64D-01  4.58D-01  7.27D-01  5.85D-01
                    CP:  6.12D-01  9.84D-01  8.65D-01
 E= -7517.81569529549     Delta-E=       -0.000000127191 Rises=F Damp=F
 DIIS: error= 2.22D-06 at cycle  14 NSaved=  14.
 NSaved=14 IEnMin=14 EnMin= -7517.81569529549     IErMin=14 ErrMin= 2.22D-06
 ErrMax= 2.22D-06  0.00D+00 EMaxC= 1.00D-01 BMatC= 7.34D-09 BMatP= 9.75D-08
 IDIUse=1 WtCom= 1.00D+00 WtEn= 0.00D+00
 Coeff-Com: -0.206D-04 0.422D-04-0.283D-05-0.950D-05-0.836D-04 0.980D-04
 Coeff-Com: -0.478D-03-0.287D-02-0.898D-02-0.149D-01-0.186D-01 0.569D-01
 Coeff-Com:  0.401D+00 0.588D+00
 Coeff:     -0.206D-04 0.422D-04-0.283D-05-0.950D-05-0.836D-04 0.980D-04
 Coeff:     -0.478D-03-0.287D-02-0.898D-02-0.149D-01-0.186D-01 0.569D-01
 Coeff:      0.401D+00 0.588D+00
 Gap=     0.122 Goal=   None    Shift=    0.000
 RMSDP=3.10D-07 MaxDP=2.48D-05 DE=-1.27D-07 OVMax= 3.37D-05

 Cycle  15  Pass 1  IDiag  1:
 RMSU=  1.61D-07    CP:  1.00D+00  4.13D-01  1.15D-01  6.15D-01  6.67D-01
                    CP:  5.45D-01  4.64D-01  4.58D-01  7.26D-01  5.89D-01
                    CP:  6.16D-01  9.86D-01  9.74D-01  5.92D-01
 E= -7517.81569530401     Delta-E=       -0.000000008518 Rises=F Damp=F
 DIIS: error= 9.02D-07 at cycle  15 NSaved=  15.
 NSaved=15 IEnMin=15 EnMin= -7517.81569530401     IErMin=15 ErrMin= 9.02D-07
 ErrMax= 9.02D-07  0.00D+00 EMaxC= 1.00D-01 BMatC= 8.64D-10 BMatP= 7.34D-09
 IDIUse=1 WtCom= 1.00D+00 WtEn= 0.00D+00
 Coeff-Com: -0.179D-05 0.412D-05-0.753D-06-0.265D-05 0.180D-04 0.985D-04
 Coeff-Com: -0.396D-04-0.780D-03-0.365D-02-0.760D-02-0.101D-01-0.517D-02
 Coeff-Com:  0.118D+00 0.344D+00 0.565D+00
 Coeff:     -0.179D-05 0.412D-05-0.753D-06-0.265D-05 0.180D-04 0.985D-04
 Coeff:     -0.396D-04-0.780D-03-0.365D-02-0.760D-02-0.101D-01-0.517D-02
 Coeff:      0.118D+00 0.344D+00 0.565D+00
 Gap=     0.122 Goal=   None    Shift=    0.000
 RMSDP=9.71D-08 MaxDP=6.88D-06 DE=-8.52D-09 OVMax= 9.60D-06

 Cycle  16  Pass 1  IDiag  1:
 RMSU=  4.35D-08    CP:  1.00D+00  4.13D-01  1.15D-01  6.15D-01  6.67D-01
                    CP:  5.45D-01  4.64D-01  4.58D-01  7.26D-01  5.89D-01
                    CP:  6.17D-01  9.97D-01  9.72D-01  7.30D-01  6.70D-01
 E= -7517.81569530479     Delta-E=       -0.000000000777 Rises=F Damp=F
 DIIS: error= 1.51D-07 at cycle  16 NSaved=  16.
 NSaved=16 IEnMin=16 EnMin= -7517.81569530479     IErMin=16 ErrMin= 1.51D-07
 ErrMax= 1.51D-07  0.00D+00 EMaxC= 1.00D-01 BMatC= 3.23D-11 BMatP= 8.64D-10
 IDIUse=1 WtCom= 1.00D+00 WtEn= 0.00D+00
 Coeff-Com:  0.164D-06-0.126D-06-0.201D-06-0.713D-06 0.131D-04 0.385D-04
 Coeff-Com:  0.205D-04-0.160D-03-0.108D-02-0.259D-02-0.331D-02-0.644D-02
 Coeff-Com:  0.275D-01 0.116D+00 0.255D+00 0.615D+00
 Coeff:      0.164D-06-0.126D-06-0.201D-06-0.713D-06 0.131D-04 0.385D-04
 Coeff:      0.205D-04-0.160D-03-0.108D-02-0.259D-02-0.331D-02-0.644D-02
 Coeff:      0.275D-01 0.116D+00 0.255D+00 0.615D+00
 Gap=     0.122 Goal=   None    Shift=    0.000
 RMSDP=2.20D-08 MaxDP=1.04D-06 DE=-7.77D-10 OVMax= 3.17D-06

 Cycle  17  Pass 1  IDiag  1:
 RMSU=  1.46D-08    CP:  1.00D+00  4.13D-01  1.15D-01  6.15D-01  6.67D-01
                    CP:  5.45D-01  4.64D-01  4.58D-01  7.26D-01  5.89D-01
                    CP:  6.17D-01  9.97D-01  9.80D-01  7.34D-01  7.22D-01
                    CP:  8.29D-01
 E= -7517.81569530520     Delta-E=       -0.000000000418 Rises=F Damp=F
 DIIS: error= 4.68D-08 at cycle  17 NSaved=  17.
 NSaved=17 IEnMin=17 EnMin= -7517.81569530520     IErMin=17 ErrMin= 4.68D-08
 ErrMax= 4.68D-08  0.00D+00 EMaxC= 1.00D-01 BMatC= 6.10D-12 BMatP= 3.23D-11
 IDIUse=1 WtCom= 1.00D+00 WtEn= 0.00D+00
 Coeff-Com:  0.162D-06-0.210D-06-0.398D-07-0.223D-06 0.585D-05 0.112D-04
 Coeff-Com:  0.193D-04 0.196D-04-0.160D-03-0.529D-03-0.632D-03-0.366D-02
 Coeff-Com:  0.977D-03 0.304D-01 0.899D-01 0.342D+00 0.542D+00
 Coeff:      0.162D-06-0.210D-06-0.398D-07-0.223D-06 0.585D-05 0.112D-04
 Coeff:      0.193D-04 0.196D-04-0.160D-03-0.529D-03-0.632D-03-0.366D-02
 Coeff:      0.977D-03 0.304D-01 0.899D-01 0.342D+00 0.542D+00
 Gap=     0.122 Goal=   None    Shift=    0.000
 RMSDP=8.09D-09 MaxDP=4.53D-07 DE=-4.18D-10 OVMax= 1.02D-06

 SCF Done:  E(RPBE1PBE) =  -7517.81569531     A.U. after   17 cycles
            NFock= 17  Conv=0.81D-08     -V/T= 2.1285
 KE= 6.661966809168D+03 PE=-2.469607415636D+04 EE= 6.963990884091D+03
 Leave Link  502 at Tue Mar  6 12:13:47 2018, MaxMem=   536870912 cpu:      3632.1
 (Enter /share/apps//mg09/l601.exe)
 Copying SCF densities to generalized density rwf, IOpCl= 0 IROHF=0.

 **********************************************************************

            Population analysis using the SCF density.

 **********************************************************************

 Orbital symmetries:
       Occupied  (A) (A) (A) (A) (A) (A) (A) (A) (A) (A) (A) (A)
                 (A) (A) (A) (A) (A) (A) (A) (A) (A) (A) (A) (A)
                 (A) (A) (A) (A) (A) (A) (A) (A) (A) (A) (A) (A)
                 (A) (A) (A) (A) (A) (A) (A) (A) (A) (A) (A) (A)
                 (A) (A) (A) (A) (A) (A) (A) (A) (A) (A) (A) (A)
                 (A) (A) (A) (A) (A) (A) (A) (A) (A) (A) (A) (A)
                 (A) (A) (A) (A) (A) (A) (A) (A) (A) (A) (A) (A)
                 (A) (A) (A) (A) (A) (A) (A) (A) (A) (A) (A) (A)
                 (A) (A) (A) (A) (A) (A) (A) (A) (A) (A) (A) (A)
                 (A) (A) (A) (A) (A) (A) (A) (A)
       Virtual   (A) (A) (A) (A) (A) (A) (A) (A) (A) (A) (A) (A)
                 (A) (A) (A) (A) (A) (A) (A) (A) (A) (A) (A) (A)
                 (A) (A) (A) (A) (A) (A) (A) (A) (A) (A) (A) (A)
                 (A) (A) (A) (A) (A) (A) (A) (A) (A) (A) (A) (A)
                 (A) (A) (A) (A) (A) (A) (A) (A) (A) (A) (A) (A)
                 (A) (A) (A) (A) (A) (A) (A) (A) (A) (A) (A) (A)
                 (A) (A) (A) (A) (A) (A) (A) (A) (A) (A) (A) (A)
                 (A) (A) (A) (A) (A) (A) (A) (A) (A) (A) (A) (A)
                 (A) (A) (A) (A) (A) (A) (A) (A) (A) (A) (A) (A)
                 (A) (A) (A) (A) (A) (A) (A) (A) (A) (A) (A) (A)
                 (A) (A) (A) (A) (A) (A) (A) (A) (A) (A) (A) (A)
                 (A) (A) (A) (A) (A) (A) (A) (A) (A) (A) (A) (A)
                 (A) (A) (A) (A) (A) (A) (A) (A) (A) (A) (A) (A)
                 (A) (A) (A) (A) (A) (A) (A) (A) (A) (A) (A) (A)
                 (A) (A) (A) (A) (A) (A) (A) (A) (A) (A) (A) (A)
                 (A) (A) (A) (A) (A) (A) (A) (A) (A) (A) (A) (A)
                 (A) (A) (A) (A) (A) (A) (A) (A) (A) (A) (A) (A)
                 (A) (A) (A) (A) (A) (A) (A) (A) (A) (A) (A) (A)
                 (A) (A) (A) (A) (A) (A) (A) (A) (A) (A) (A) (A)
                 (A) (A) (A) (A) (A) (A) (A) (A) (A) (A) (A) (A)
                 (A) (A) (A) (A) (A) (A) (A) (A) (A) (A) (A) (A)
                 (A) (A) (A) (A) (A) (A) (A) (A) (A) (A) (A) (A)
                 (A) (A) (A) (A) (A) (A) (A) (A) (A) (A) (A) (A)
                 (A) (A) (A) (A) (A) (A) (A) (A) (A) (A) (A) (A)
                 (A) (A) (A) (A) (A) (A) (A) (A) (A) (A) (A) (A)
                 (A) (A) (A) (A) (A) (A) (A) (A) (A) (A) (A) (A)
                 (A) (A) (A) (A) (A) (A) (A) (A) (A) (A) (A) (A)
                 (A) (A) (A) (A)
 The electronic state is 1-A.
 Alpha  occ. eigenvalues -- -399.09646-399.09000-399.08697 -49.91200 -49.90613
 Alpha  occ. eigenvalues --  -49.90288 -44.39315 -44.39239 -44.39217 -44.38687
 Alpha  occ. eigenvalues --  -44.38677 -44.38629 -44.38368 -44.38339 -44.38319
 Alpha  occ. eigenvalues --   -6.27700  -6.27125  -6.26795  -6.02901  -6.02551
 Alpha  occ. eigenvalues --   -6.01909  -6.01065  -5.13985  -5.12991  -4.43247
 Alpha  occ. eigenvalues --   -4.43000  -4.42912  -4.42568  -4.42518  -4.42362
 Alpha  occ. eigenvalues --   -4.42245  -4.42136  -4.42072  -3.75185  -3.75106
 Alpha  occ. eigenvalues --   -3.74838  -3.74808  -3.74681  -3.74570  -3.74229
 Alpha  occ. eigenvalues --   -3.74105  -3.73810  -3.73407  -3.73150  -3.73036
 Alpha  occ. eigenvalues --   -3.47292  -3.47096  -3.46910  -3.46250  -3.46115
 Alpha  occ. eigenvalues --   -3.45964  -1.22683  -1.22626  -1.22529  -1.22384
 Alpha  occ. eigenvalues --   -1.22336  -1.22052  -1.22013  -1.21908  -1.21843
 Alpha  occ. eigenvalues --   -1.21815  -1.21685  -1.21668  -1.21606  -1.21511
 Alpha  occ. eigenvalues --   -1.21492  -1.09188  -1.09079  -1.08739  -1.08690
 Alpha  occ. eigenvalues --   -1.08578  -1.08534  -1.08404  -1.08274  -1.08217
 Alpha  occ. eigenvalues --   -1.08136  -1.07775  -1.07671  -1.07484  -1.07449
 Alpha  occ. eigenvalues --   -1.07401  -1.07003  -1.06903  -1.06789  -1.06641
 Alpha  occ. eigenvalues --   -1.06587  -1.03466  -1.03431  -1.03264  -1.03118
 Alpha  occ. eigenvalues --   -1.03091  -1.02446  -1.02411  -1.02290  -1.02207
 Alpha  occ. eigenvalues --   -1.02133  -0.67430  -0.61354  -0.58842  -0.57904
 Alpha  occ. eigenvalues --   -0.51794  -0.47296  -0.43758  -0.41474  -0.40290
 Alpha  occ. eigenvalues --   -0.29478  -0.27810  -0.26365  -0.25637  -0.25572
 Alpha  occ. eigenvalues --   -0.24711  -0.22916  -0.22133  -0.21693  -0.21228
 Alpha  occ. eigenvalues --   -0.20219
 Alpha virt. eigenvalues --   -0.07993  -0.07399  -0.07329  -0.07128  -0.06025
 Alpha virt. eigenvalues --   -0.05737  -0.05421  -0.04914  -0.04190  -0.02924
 Alpha virt. eigenvalues --   -0.02398  -0.02016  -0.01735   0.03936   0.05395
 Alpha virt. eigenvalues --    0.05889   0.06205   0.08104   0.08492   0.08811
 Alpha virt. eigenvalues --    0.09184   0.09689   0.09856   0.10015   0.10317
 Alpha virt. eigenvalues --    0.10792   0.11479   0.11664   0.12143   0.12901
 Alpha virt. eigenvalues --    0.13695   0.15519   0.16321   0.17101   0.17321
 Alpha virt. eigenvalues --    0.17491   0.18420   0.19641   0.19969   0.20598
 Alpha virt. eigenvalues --    0.21047   0.21387   0.21940   0.23324   0.23808
 Alpha virt. eigenvalues --    0.24611   0.26057   0.26826   0.28511   0.28637
 Alpha virt. eigenvalues --    0.29130   0.30256   0.30779   0.30978   0.31265
 Alpha virt. eigenvalues --    0.32036   0.32259   0.32328   0.33271   0.33546
 Alpha virt. eigenvalues --    0.34313   0.35120   0.36246   0.36622   0.37627
 Alpha virt. eigenvalues --    0.38898   0.39595   0.40603   0.41107   0.42320
 Alpha virt. eigenvalues --    0.42649   0.43205   0.43318   0.44135   0.44772
 Alpha virt. eigenvalues --    0.45216   0.46025   0.46571   0.47517   0.48229
 Alpha virt. eigenvalues --    0.48721   0.49086   0.49788   0.50464   0.51067
 Alpha virt. eigenvalues --    0.51810   0.53567   0.54056   0.54503   0.55934
 Alpha virt. eigenvalues --    0.56319   0.57782   0.57917   0.58992   0.59136
 Alpha virt. eigenvalues --    0.60418   0.60957   0.61495   0.62096   0.62814
 Alpha virt. eigenvalues --    0.63600   0.64268   0.64975   0.65380   0.66430
 Alpha virt. eigenvalues --    0.66600   0.66758   0.68284   0.68406   0.69222
 Alpha virt. eigenvalues --    0.70146   0.72204   0.72479   0.72823   0.74350
 Alpha virt. eigenvalues --    0.75486   0.75877   0.76520   0.77418   0.77876
 Alpha virt. eigenvalues --    0.79174   0.79617   0.80822   0.81424   0.81897
 Alpha virt. eigenvalues --    0.82944   0.83076   0.84226   0.84861   0.85178
 Alpha virt. eigenvalues --    0.85604   0.86270   0.87627   0.88121   0.89460
 Alpha virt. eigenvalues --    0.90247   0.91261   0.92121   0.92779   0.93767
 Alpha virt. eigenvalues --    0.94708   0.95227   0.95369   0.96137   0.97225
 Alpha virt. eigenvalues --    0.97586   0.98559   0.99697   1.00175   1.00942
 Alpha virt. eigenvalues --    1.02003   1.03775   1.06069   1.07276   1.07983
 Alpha virt. eigenvalues --    1.08995   1.10300   1.10970   1.11627   1.12713
 Alpha virt. eigenvalues --    1.13636   1.15315   1.15582   1.17104   1.17445
 Alpha virt. eigenvalues --    1.18356   1.18918   1.19572   1.19677   1.20267
 Alpha virt. eigenvalues --    1.20705   1.20952   1.21874   1.22422   1.22628
 Alpha virt. eigenvalues --    1.22995   1.23558   1.23823   1.23997   1.24746
 Alpha virt. eigenvalues --    1.25327   1.25454   1.26176   1.26922   1.27429
 Alpha virt. eigenvalues --    1.27641   1.28184   1.28760   1.29450   1.30394
 Alpha virt. eigenvalues --    1.30500   1.31591   1.31824   1.33313   1.33824
 Alpha virt. eigenvalues --    1.34782   1.35708   1.36133   1.37979   1.38999
 Alpha virt. eigenvalues --    1.40016   1.40299   1.41927   1.42310   1.44471
 Alpha virt. eigenvalues --    1.45087   1.45660   1.46995   1.48229   1.48624
 Alpha virt. eigenvalues --    1.48926   1.50400   1.51324   1.52134   1.52675
 Alpha virt. eigenvalues --    1.53474   1.55041   1.56371   1.58153   1.60230
 Alpha virt. eigenvalues --    1.64058   1.65820   1.67478   1.99030   2.03798
 Alpha virt. eigenvalues --    2.06908   2.08712   2.12171   2.13352   2.15075
 Alpha virt. eigenvalues --    2.16273   2.17265   2.18144   2.19098   2.19980
 Alpha virt. eigenvalues --    2.21558   2.22390   2.23559   2.24600   2.26034
 Alpha virt. eigenvalues --    2.28243   2.28754   2.30200   2.31343   2.31962
 Alpha virt. eigenvalues --    2.35011   2.36012   2.37491   2.39234   2.39833
 Alpha virt. eigenvalues --    2.40752   2.42187   2.45122   2.47152   2.48717
 Alpha virt. eigenvalues --    2.49221   2.50812   2.52678   2.53467   2.55224
 Alpha virt. eigenvalues --    2.57557   2.58791   2.59938   2.62154   2.66788
 Alpha virt. eigenvalues --    2.67447   2.70238   2.70935   2.72534   2.75067
 Alpha virt. eigenvalues --    2.76405   2.77930   2.80575   2.80985   2.82030
 Alpha virt. eigenvalues --    2.82800   2.83387   2.88736   2.93456   2.98417
 Alpha virt. eigenvalues --    3.20245   3.27869   3.28603   3.36082   3.38471
 Alpha virt. eigenvalues --    3.42611   3.96665   3.98738   3.98977   4.00208
 Alpha virt. eigenvalues --    4.04060   4.04679   4.07960   4.09879   4.13448
 Alpha virt. eigenvalues --    5.28859   5.33826   5.37048  35.35950  35.39108
 Alpha virt. eigenvalues --   35.40961  35.43118  35.44948  35.46203  35.47501
 Alpha virt. eigenvalues --   35.48243  35.52628  35.54900  35.59642  35.61664
 Alpha virt. eigenvalues --   35.84079  35.94285  36.01951  36.05558  36.19757
 Alpha virt. eigenvalues --   36.23437  36.93302  36.99262  37.02547  37.03912
 Alpha virt. eigenvalues --   37.09832  37.21254 113.57181 113.60072 120.20679
 Alpha virt. eigenvalues --  120.23311 120.24476 120.25439
          Condensed to atoms (all electrons):
               1          2          3          4          5          6
     1  Ge  31.529393  -0.018834   0.109597   0.131143   0.138345  -0.020929
     2  Bi  -0.018834  22.421023  -0.016138   0.171076  -0.015682   0.196148
     3  Sn   0.109597  -0.016138  21.318489  -0.019634   0.159349   0.140875
     4  Bi   0.131143   0.171076  -0.019634  22.368098  -0.018741  -0.026196
     5  Ge   0.138345  -0.015682   0.159349  -0.018741  31.602392  -0.012438
     6  Bi  -0.020929   0.196148   0.140875  -0.026196  -0.012438  22.396850
     7  Sn  -0.021075   0.119892   0.077273  -0.020792   0.165561   0.148321
     8  Bi   0.075709   0.153773  -0.021285   0.148269   0.202418  -0.025659
     9  Ge   0.140110  -0.017552   0.135044   0.203469  -0.014735   0.180699
               7          8          9
     1  Ge  -0.021075   0.075709   0.140110
     2  Bi   0.119892   0.153773  -0.017552
     3  Sn   0.077273  -0.021285   0.135044
     4  Bi  -0.020792   0.148269   0.203469
     5  Ge   0.165561   0.202418  -0.014735
     6  Bi   0.148321  -0.025659   0.180699
     7  Sn  21.393705   0.080615  -0.014022
     8  Bi   0.080615  22.264725  -0.020266
     9  Ge  -0.014022  -0.020266  31.557903
 Mulliken charges:
               1
     1  Ge  -0.063459
     2  Bi   0.006293
     3  Sn   0.116429
     4  Bi   0.063307
     5  Ge  -0.206471
     6  Bi   0.022329
     7  Sn   0.070521
     8  Bi   0.141701
     9  Ge  -0.150651
 Sum of Mulliken charges =   0.00000
 Mulliken charges with hydrogens summed into heavy atoms:
               1
     1  Ge  -0.063459
     2  Bi   0.006293
     3  Sn   0.116429
     4  Bi   0.063307
     5  Ge  -0.206471
     6  Bi   0.022329
     7  Sn   0.070521
     8  Bi   0.141701
     9  Ge  -0.150651
 Electronic spatial extent (au):  <R**2>=           6186.8859
 Charge=              0.0000 electrons
 Dipole moment (field-independent basis, Debye):
    X=              1.0255    Y=             -1.6236    Z=             -1.3566  Tot=              2.3512
 Quadrupole moment (field-independent basis, Debye-Ang):
   XX=           -214.9717   YY=           -219.2743   ZZ=           -221.5163
   XY=             -1.3085   XZ=              0.1752   YZ=             -0.3231
 Traceless Quadrupole moment (field-independent basis, Debye-Ang):
   XX=              3.6157   YY=             -0.6869   ZZ=             -2.9288
   XY=             -1.3085   XZ=              0.1752   YZ=             -0.3231
 Octapole moment (field-independent basis, Debye-Ang**2):
  XXX=             84.0975  YYY=           -151.0053  ZZZ=            -43.8281  XYY=             26.7632
  XXY=            -43.5589  XXZ=            -14.9327  XZZ=             34.2729  YZZ=            -44.6400
  YYZ=            -11.6647  XYZ=             -3.6237
 Hexadecapole moment (field-independent basis, Debye-Ang**3):
 XXXX=          -3429.7181 YYYY=          -3257.4564 ZZZZ=          -3069.3592 XXXY=             83.0201
 XXXZ=             -9.2917 YYYX=             52.0218 YYYZ=             15.8407 ZZZX=             23.1642
 ZZZY=            -23.1347 XXYY=          -1098.7233 XXZZ=          -1065.4583 YYZZ=          -1043.7313
 XXYZ=            -26.2719 YYXZ=             -6.6648 ZZXY=              9.4894
 N-N= 3.552300767795D+03 E-N=-2.469607412764D+04  KE= 6.661966809168D+03
 No NMR shielding tensors so no spin-rotation constants.
 Leave Link  601 at Tue Mar  6 12:13:48 2018, MaxMem=   536870912 cpu:         1.5
 (Enter /share/apps//mg09/l701.exe)
 Compute integral first derivatives.
 ... and contract with generalized density number  0.
   1 Symmetry operations used in ECPInt.
 ECPInt:  NShTT=   10440 NPrTT=   41973 LenC2=    9670 LenP2D=   27419.
 LDataN:  DoStor=T MaxTD1= 9 Len=  602
 Leave Link  701 at Tue Mar  6 12:14:17 2018, MaxMem=   536870912 cpu:       102.2
 (Enter /share/apps//mg09/l702.exe)
 L702 exits ... SP integral derivatives will be done elsewhere.
 Leave Link  702 at Tue Mar  6 12:14:18 2018, MaxMem=   536870912 cpu:         0.0
 (Enter /share/apps//mg09/l703.exe)
 Compute integral first derivatives, UseDBF=F ICtDFT=           0.
 Integral derivatives from FoFJK, PRISM(SPDF).
 Calling FoFJK, ICntrl=      2127 FMM=F ISym2X=0 I1Cent= 0 IOpClX= 0 NMat=1 NMatS=1 NMatT=0.
 FoFJK:  IHMeth= 1 ICntrl=    2127 DoSepK=F KAlg= 0 I1Cent=   0 FoldK=F
 IRaf=         0 NMat=   1 IRICut=       1 DoRegI=T DoRafI=F ISym2E= 0.
 FoFCou: FMM=F IPFlag=           0 FMFlag=      100000 FMFlg1=         800
         NFxFlg=           0 DoJE=F BraDBF=F KetDBF=F FulRan=T
         wScrn=  0.000000 ICntrl=    2127 IOpCl=  0 I1Cent=           0 NGrid=           0
         NMat0=    1 NMatS0=      1 NMatT0=    0 NMatD0=    1 NMtDS0=    0 NMtDT0=    0
 Symmetry not used in FoFCou.
 Defaulting to unpruned grid for atomic number  83.
 Defaulting to unpruned grid for atomic number  83.
 Defaulting to unpruned grid for atomic number  83.
 Defaulting to unpruned grid for atomic number  83.
 Leave Link  703 at Tue Mar  6 12:18:10 2018, MaxMem=   536870912 cpu:       848.7
 (Enter /share/apps//mg09/l716.exe)
 Dipole        = 4.03452454D-01-6.38783619D-01-5.33707945D-01
 ***** Axes restored to original set *****
 -------------------------------------------------------------------
 Center     Atomic                   Forces (Hartrees/Bohr)
 Number     Number              X              Y              Z
 -------------------------------------------------------------------
      1       32          -0.009341591   -0.008846696   -0.009294876
      2       83          -0.002786247    0.005570760    0.002538801
      3       50           0.015279972   -0.005331290   -0.002678424
      4       83          -0.007454106    0.004591002   -0.002082430
      5       32          -0.000288959   -0.014255218    0.006982288
      6       83           0.005687267    0.006475294    0.000976192
      7       50           0.004192195    0.002657144    0.012039702
      8       83          -0.009294631    0.001479238    0.003828975
      9       32           0.004006101    0.007659766   -0.012310229
 -------------------------------------------------------------------
 Cartesian Forces:  Max     0.015279972 RMS     0.007387636
 Force constants in Cartesian coordinates: 
                1             2             3             4             5 
      1  0.158397D+00
      2  0.127671D-01  0.208077D+00
      3  0.208983D-01  0.284280D-01  0.192970D+00
      4  0.415449D-02  0.374136D-02  0.308721D-02  0.118331D+00
      5 -0.389939D-02 -0.224175D-02 -0.596737D-02 -0.149471D-01  0.148738D+00
      6 -0.252114D-02 -0.572631D-02  0.180363D-02 -0.242740D-02  0.265467D-01
      7 -0.500675D-01  0.138461D-01  0.497566D-02  0.941104D-03  0.814176D-02
      8 -0.153185D-01 -0.277207D-01 -0.115407D-01  0.163474D-02 -0.206594D-03
      9 -0.211497D-01 -0.506800D-02 -0.255369D-01 -0.118487D-02 -0.184035D-02
     10 -0.268596D-01  0.320108D-02 -0.109661D-01 -0.266016D-01  0.104962D-01
     11  0.314552D-01 -0.673431D-01  0.602637D-02 -0.739869D-02 -0.259023D-01
     12  0.176497D-02 -0.194166D-01 -0.296227D-01 -0.193099D-01  0.222593D-02
     13 -0.273962D-01  0.796630D-02 -0.163776D-01  0.796174D-02  0.113706D-02
     14 -0.784671D-02 -0.388212D-01 -0.138911D-01  0.373177D-02 -0.546397D-02
     15 -0.917719D-02  0.275816D-01 -0.573227D-01  0.117644D-02  0.267392D-02
     16  0.590119D-03 -0.833350D-02 -0.522177D-02 -0.512144D-01 -0.139289D-01
     17 -0.206459D-02 -0.836408D-03 -0.592575D-02  0.186431D-01 -0.260380D-01
     18  0.153318D-02 -0.138046D-02  0.442957D-02  0.161805D-01 -0.245035D-03
     19  0.469974D-02 -0.367136D-02 -0.570888D-02 -0.260324D-01  0.779827D-02
     20 -0.552512D-03  0.439972D-02 -0.486402D-03  0.205233D-01 -0.376736D-01
     21 -0.693838D-02 -0.830887D-02 -0.587961D-02 -0.312767D-02 -0.104316D-01
     22 -0.298737D-01 -0.115596D-01 -0.237366D-02 -0.334983D-01  0.307670D-02
     23  0.604143D-02 -0.258544D-01 -0.200524D-01 -0.281503D-01 -0.505982D-01
     24  0.262295D-01 -0.451314D-02 -0.439471D-01  0.575547D-03 -0.107509D-01
     25 -0.336441D-01 -0.179575D-01  0.116869D-01  0.595857D-02  0.212540D-02
     26 -0.205820D-01 -0.496586D-01  0.234093D-01  0.222179D-02 -0.613985D-03
     27 -0.106396D-01 -0.115963D-01 -0.368941D-01  0.503012D-02 -0.221125D-02
                6             7             8             9            10 
      6  0.108339D+00
      7  0.453853D-02  0.195950D+00
      8 -0.452835D-02 -0.321094D-01  0.166936D+00
      9  0.310384D-02 -0.203189D-01 -0.291575D-03  0.133188D+00
     10 -0.693008D-02 -0.240907D-02  0.721753D-02  0.196417D-02  0.155789D+00
     11 -0.269706D-01  0.400674D-02  0.338201D-02 -0.248562D-02 -0.383110D-01
     12 -0.437213D-01 -0.585052D-02  0.268954D-02  0.492016D-02  0.115163D-01
     13  0.212132D-02 -0.477753D-01 -0.249126D-01  0.256924D-01  0.286701D-02
     14 -0.357638D-02  0.122509D-01 -0.374812D-01  0.870850D-03  0.521770D-02
     15  0.391699D-02  0.895027D-02  0.191723D-01 -0.314642D-01 -0.507893D-02
     16  0.113068D-01 -0.280550D-01  0.224360D-01  0.105355D-01 -0.605794D-02
     17 -0.134792D-01 -0.151731D-01 -0.589475D-01 -0.565052D-02 -0.177946D-02
     18 -0.232213D-01  0.237985D-02 -0.108612D-01 -0.183049D-01 -0.475440D-02
     19 -0.211324D-01 -0.239381D-01  0.119873D-01  0.191022D-01  0.813957D-03
     20  0.207612D-01  0.486176D-02 -0.163241D-01 -0.130179D-01  0.198884D-02
     21 -0.288674D-01 -0.137859D-01  0.187830D-02 -0.350720D-01 -0.856226D-02
     22  0.101200D-01 -0.730401D-02  0.588359D-02  0.535741D-02 -0.283228D-01
     23  0.928856D-02 -0.134234D-02  0.589195D-02  0.112817D-02 -0.960424D-02
     24 -0.165537D-01  0.734662D-02 -0.228841D-02  0.512103D-02  0.214680D-01
     25  0.492444D-02 -0.373421D-01  0.231814D-01 -0.199981D-01 -0.692190D-01
     26 -0.231562D-02  0.551769D-02 -0.355300D-01  0.263550D-01  0.215733D-01
     27 -0.479970D-02  0.117644D-01  0.577008D-02 -0.359552D-01  0.134327D-02
               11            12            13            14            15 
     11  0.135072D+00
     12 -0.120579D-01  0.140491D+00
     13 -0.474620D-03 -0.298597D-02  0.140654D+00
     14 -0.106240D-02  0.695051D-02 -0.135925D-01  0.193535D+00
     15  0.408130D-02  0.610655D-02 -0.387607D-02 -0.232777D-01  0.135068D+00
     16 -0.257856D-02 -0.519529D-02  0.241073D-02 -0.737057D-02  0.374403D-03
     17  0.124401D-02  0.210102D-02 -0.102144D-02 -0.363185D-02  0.427390D-02
     18  0.188222D-02  0.481910D-02 -0.198495D-02  0.204692D-02  0.702956D-02
     19  0.189437D-02 -0.246639D-03 -0.233772D-01 -0.477692D-03 -0.124655D-01
     20  0.489025D-02  0.410508D-03 -0.175336D-01 -0.484045D-01 -0.285775D-01
     21  0.374971D-02 -0.186975D-02 -0.608813D-02  0.111288D-01 -0.372905D-01
     22  0.124432D-01 -0.106481D-01 -0.643077D-01  0.925808D-02  0.165891D-01
     23 -0.302413D-01  0.229140D-01  0.473451D-01 -0.582199D-01 -0.761859D-02
     24  0.174423D-01 -0.444580D-01  0.785864D-03  0.106477D-01 -0.255367D-01
     25 -0.103663D-02  0.309551D-01  0.896283D-02 -0.117095D-02  0.350755D-02
     26 -0.200393D-01 -0.581702D-02  0.108632D-02 -0.450189D-03  0.169069D-02
     27  0.833231D-02 -0.366649D-01  0.271321D-02  0.910039D-02 -0.507208D-03
               16            17            18            19            20 
     16  0.136539D+00
     17  0.328274D-01  0.145753D+00
     18 -0.553983D-02  0.954871D-02  0.123868D+00
     19 -0.207812D-01 -0.161617D-01  0.164273D-01  0.125131D+00
     20 -0.510938D-02 -0.337326D-01  0.271356D-01  0.226319D-02  0.133858D+00
     21 -0.998934D-02  0.172268D-02 -0.462671D-01  0.330189D-01 -0.694625D-02
     22 -0.276192D-02 -0.652956D-02 -0.125054D-02 -0.405415D-01 -0.612978D-02
     23 -0.329799D-02  0.248202D-02 -0.140278D-02 -0.476852D-02 -0.128186D-01
     24  0.583198D-02  0.364426D-02  0.326149D-02 -0.235315D-01 -0.119087D-02
     25 -0.306697D-01 -0.874064D-02 -0.229911D-01  0.402535D-02 -0.311842D-03
     26 -0.146445D-01 -0.262924D-01 -0.267239D-01  0.113617D-02  0.580533D-02
     27 -0.210240D-02  0.376488D-02 -0.556145D-01 -0.546340D-02  0.191165D-02
               21            22            23            24            25 
     21  0.189126D+00
     22  0.118609D-01  0.205933D+00
     23  0.498348D-02 -0.365420D-02  0.163807D+00
     24 -0.282371D-01 -0.390447D-01 -0.135226D-01  0.151870D+00
     25  0.361185D-02  0.677283D-03 -0.256894D-02  0.338614D-03  0.151251D+00
     26  0.222380D-02 -0.278849D-02  0.555107D-02  0.531673D-03  0.647974D-02
     27 -0.564263D-02  0.938967D-02  0.428208D-02 -0.152037D-02 -0.120353D-01
               26            27 
     26  0.121228D+00
     27 -0.193539D-01  0.177599D+00
 Leave Link  716 at Tue Mar  6 12:18:10 2018, MaxMem=   536870912 cpu:         0.1
 (Enter /share/apps//mg09/l103.exe)

 GradGradGradGradGradGradGradGradGradGradGradGradGradGradGradGradGradGrad
 Berny optimization.
 Search for a local minimum.
 Step number   1 out of a maximum of  100
 All quantities printed in internal units (Hartrees-Bohrs-Radians)
 Second derivative matrix not updated -- first step.
 ITU=  0
     Eigenvalues ---    0.08097   0.11876   0.12122   0.12547   0.13524
     Eigenvalues ---    0.14175   0.14564   0.14996   0.15812   0.16361
     Eigenvalues ---    0.17459   0.22068   0.23034   0.23605   0.23840
     Eigenvalues ---    0.24324   0.26229   0.28338   0.29035   0.30723
     Eigenvalues ---    0.31642
 RFO step:  Lambda=-8.74042642D-03 EMin= 8.09654695D-02
 Linear search not attempted -- first point.
 TrRot= -0.000788 -0.001491 -0.001591 -0.948594 -0.000115  0.948697
 Variable       Old X    -DE/DX   Delta X   Delta X   Delta X     New X
                                 (Linear)    (Quad)   (Total)
    X1        1.16085  -0.00934   0.00000  -0.04548  -0.04685   1.11400
    Y1        3.67857  -0.00885   0.00000  -0.04333  -0.04442   3.63416
    Z1        3.21962  -0.00929   0.00000  -0.04962  -0.05147   3.16814
    X2        1.22052  -0.00279   0.00000  -0.01880  -0.01910   1.20143
    Y2       -3.51980   0.00557   0.00000   0.04504   0.04348  -3.47632
    Z2       -2.05297   0.00254   0.00000   0.02266   0.02147  -2.03150
    X3       -4.24347   0.01528   0.00000   0.08046   0.07927  -4.16420
    Y3        3.04491  -0.00533   0.00000  -0.03142  -0.03321   3.01171
    Z3        1.45872  -0.00268   0.00000  -0.01783  -0.01998   1.43874
    X4        3.35767  -0.00745   0.00000  -0.04900  -0.04983   3.30784
    Y4       -1.41813   0.00459   0.00000   0.02420   0.02331  -1.39481
    Z4        2.89537  -0.00208   0.00000  -0.02683  -0.02807   2.86729
    X5       -0.34168  -0.00029   0.00000  -0.00716  -0.00840  -0.35008
    Y5        5.42010  -0.01426   0.00000  -0.08078  -0.08244   5.33766
    Z5       -1.51390   0.00698   0.00000   0.04741   0.04530  -1.46860
    X6       -3.95745   0.00569   0.00000   0.05205   0.05151  -3.90595
    Y6       -2.58685   0.00648   0.00000   0.04467   0.04280  -2.54405
    Z6        0.19171   0.00098   0.00000   0.00691   0.00530   0.19701
    X7       -2.20772   0.00419   0.00000   0.02713   0.02652  -2.18120
    Y7        0.90131   0.00266   0.00000   0.01531   0.01322   0.91453
    Z7       -4.16140   0.01204   0.00000   0.07880   0.07698  -4.08442
    X8        3.57914  -0.00929   0.00000  -0.05249  -0.05334   3.52580
    Y8        1.83186   0.00148   0.00000  -0.00739  -0.00869   1.82317
    Z8       -1.92008   0.00383   0.00000   0.02846   0.02694  -1.89315
    X9       -1.63265   0.00401   0.00000   0.02130   0.02024  -1.61241
    Y9       -0.49862   0.00766   0.00000   0.04716   0.04595  -0.45267
    Z9        4.81522  -0.01231   0.00000  -0.07481  -0.07646   4.73876
         Item               Value     Threshold  Converged?
 Maximum Force            0.015280     0.000450     NO 
 RMS     Force            0.007388     0.000300     NO 
 Maximum Displacement     0.082444     0.001800     NO 
 RMS     Displacement     0.044466     0.001200     NO 
 Predicted change in Energy=-4.603759D-03
 Lowest energy point so far.  Saving SCF results.
 GradGradGradGradGradGradGradGradGradGradGradGradGradGradGradGradGradGrad

 Leave Link  103 at Tue Mar  6 12:18:10 2018, MaxMem=   536870912 cpu:         0.1
 (Enter /share/apps//mg09/l202.exe)
                          Input orientation:                          
 ---------------------------------------------------------------------
 Center     Atomic      Atomic             Coordinates (Angstroms)
 Number     Number       Type             X           Y           Z
 ---------------------------------------------------------------------
      1         32           0        0.589502    1.923113    1.676509
      2         83           0        0.635769   -1.839590   -1.075021
      3         50           0       -2.203599    1.593726    0.761350
      4         83           0        1.750433   -0.738104    1.517307
      5         32           0       -0.185257    2.824566   -0.777150
      6         83           0       -2.066938   -1.346254    0.104253
      7         50           0       -1.154242    0.483948   -2.161384
      8         83           0        1.865773    0.964777   -1.001810
      9         32           0       -0.853250   -0.239544    2.507642
 ---------------------------------------------------------------------
                    Distance matrix (angstroms):
                    1          2          3          4          5
     1  Ge   0.000000
     2  Bi   4.661652   0.000000
     3  Sn   2.957604   4.818914   0.000000
     4  Bi   2.907779   3.029177   4.652232   0.000000
     5  Ge   2.726410   4.745225   2.820577   4.658759   0.000000
     6  Bi   4.496379   2.989766   3.015615   4.115688   4.659757
     7  Sn   4.454354   3.127804   3.297747   4.843894   2.886785
     8  Bi   3.117799   3.063127   4.479296   3.042870   2.777770
     9  Ge   2.729359   4.196761   2.869469   2.829927   4.541458
                    6          7          8          9
     6  Bi   0.000000
     7  Sn   3.052174   0.000000
     8  Bi   4.693661   3.270520   0.000000
     9  Ge   2.911034   4.734326   4.599970   0.000000
 Stoichiometry    Bi4Ge3Sn2
 Framework group  C1[X(Bi4Ge3Sn2)]
 Deg. of freedom    21
 Full point group                 C1      NOp   1
 RotChk:  IX=0 Diff= 1.87D-02
 Largest Abelian subgroup         C1      NOp   1
 Largest concise Abelian subgroup C1      NOp   1
                         Standard orientation:                         
 ---------------------------------------------------------------------
 Center     Atomic      Atomic             Coordinates (Angstroms)
 Number     Number       Type             X           Y           Z
 ---------------------------------------------------------------------
      1         32           0        0.574799    1.940817    1.653829
      2         83           0        0.652106   -1.851962   -1.055387
      3         50           0       -2.214095    1.582440    0.736735
      4         83           0        1.753891   -0.714135    1.526731
      5         32           0       -0.200820    2.809594   -0.811318
      6         83           0       -2.056329   -1.363703    0.112809
      7         50           0       -1.151162    0.447204   -2.171279
      8         83           0        1.863110    0.961265   -1.011017
      9         32           0       -0.855158   -0.222095    2.506142
 ---------------------------------------------------------------------
 Rotational constants (GHZ):      0.1040417      0.0931034      0.0879886
 Leave Link  202 at Tue Mar  6 12:18:11 2018, MaxMem=   536870912 cpu:         0.1
 (Enter /share/apps//mg09/l301.exe)
 Standard basis: def2TZVP (5D, 7F)
 Ernie: Thresh=  0.10000D-02 Tol=  0.10000D-05 Strict=F.
 There are   519 symmetry adapted cartesian basis functions of A   symmetry.
 There are   444 symmetry adapted basis functions of A   symmetry.
   444 basis functions,   963 primitive gaussians,   519 cartesian basis functions
   116 alpha electrons      116 beta electrons
       nuclear repulsion energy      3610.1741758987 Hartrees.
 IExCor= 1009 DFT=T Ex+Corr=PBE1PBE ExCW=0 ScaHFX=  0.250000
 ScaDFX=  0.750000  0.750000  1.000000  1.000000 ScalE2=  1.000000  1.000000
 IRadAn=      0 IRanWt=     -1 IRanGd=            0 ICorTp=0 IEmpDi=  4
 NAtoms=    9 NActive=    9 NUniq=    9 SFac= 1.00D+00 NAtFMM=   60 NAOKFM=F Big=F
 Integral buffers will be    131072 words long.
 Raffenetti 2 integral format.
 Two-electron integral symmetry is turned on.
 Leave Link  301 at Tue Mar  6 12:18:11 2018, MaxMem=   536870912 cpu:         0.2
 (Enter /share/apps//mg09/l302.exe)
 NPDir=0 NMtPBC=     1 NCelOv=     1 NCel=       1 NClECP=     1 NCelD=      1
         NCelK=      1 NCelE2=     1 NClLst=     1 CellRange=     0.0.
 One-electron integrals computed using PRISM.
   1 Symmetry operations used in ECPInt.
 ECPInt:  NShTT=   10440 NPrTT=   41973 LenC2=    9707 LenP2D=   27642.
 LDataN:  DoStor=T MaxTD1= 8 Len=  415
 NBasis=   444 RedAO= T EigKep=  1.30D-03  NBF=   444
 NBsUse=   444 1.00D-06 EigRej= -1.00D+00 NBFU=   444
 Precomputing XC quadrature grid using
 IXCGrd= 4 IRadAn=           0 IRanWt=          -1 IRanGd=           0 AccXCQ= 0.00D+00.
 Defaulting to unpruned grid for atomic number  83.
 Defaulting to unpruned grid for atomic number  50.
 Defaulting to unpruned grid for atomic number  83.
 Generated NRdTot=       0 NPtTot=           0 NUsed=           0 NTot=          32
 NSgBfM=   503   503   503   503   503 MxSgAt=     9 MxSgA2=     9.
 Leave Link  302 at Tue Mar  6 12:18:23 2018, MaxMem=   536870912 cpu:        37.7
 (Enter /share/apps//mg09/l303.exe)
 DipDrv:  MaxL=1.
 Leave Link  303 at Tue Mar  6 12:18:23 2018, MaxMem=   536870912 cpu:         0.4
 (Enter /share/apps//mg09/l401.exe)
 Initial guess from the checkpoint file:  "Isomer_25.chk"
 B after Tr=     0.000000    0.000000    0.000000
         Rot=    0.999979    0.005457    0.000934   -0.003269 Ang=   0.74 deg.
 Guess basis will be translated and rotated to current coordinates.
 JPrj=2 DoOrth=T DoCkMO=T.
 Generating alternative initial guess.
 ExpMin= 4.62D-02 ExpMax= 4.66D+05 ExpMxC= 4.50D+03 IAcc=2 IRadAn=         4 AccDes= 0.00D+00
 Harris functional with IExCor= 1009 and IRadAn=       4 diagonalized for initial guess.
 HarFok:  IExCor= 1009 AccDes= 0.00D+00 IRadAn=         4 IDoV= 1 UseB2=F ITyADJ=14
 ICtDFT=  3500011 ScaDFX=  1.000000  1.000000  1.000000  1.000000
 Defaulting to unpruned grid for atomic number  83.
 Defaulting to unpruned grid for atomic number  83.
 Defaulting to unpruned grid for atomic number  83.
 Defaulting to unpruned grid for atomic number  83.
 FoFCou: FMM=F IPFlag=           0 FMFlag=      100000 FMFlg1=           0
         NFxFlg=           0 DoJE=T BraDBF=F KetDBF=T FulRan=T
         wScrn=  0.000000 ICntrl=     500 IOpCl=  0 I1Cent=   200000004 NGrid=           0
         NMat0=    1 NMatS0=      1 NMatT0=    0 NMatD0=    1 NMtDS0=    0 NMtDT0=    0
 Petite list used in FoFCou.
 Harris En= -7518.63489989177    
 Leave Link  401 at Tue Mar  6 12:18:27 2018, MaxMem=   536870912 cpu:        14.5
 (Enter /share/apps//mg09/l502.exe)
 Closed shell SCF:
 Using DIIS extrapolation, IDIIS=  1040.
 Integral symmetry usage will be decided dynamically.
 IVT=     1410107 IEndB=     1410107 NGot=   536870912 MDV=   536322046
 LenX=   536322046 LenY=   536052166
 Requested convergence on RMS density matrix=1.00D-08 within 768 cycles.
 Requested convergence on MAX density matrix=1.00D-06.
 Requested convergence on             energy=1.00D-06.
 No special actions if energy rises.
 Fock matrices will be formed incrementally for  20 cycles.

 Cycle   1  Pass 1  IDiag  1:
 FoFJK:  IHMeth= 1 ICntrl=       0 DoSepK=F KAlg= 0 I1Cent=   0 FoldK=F
 IRaf= 880000000 NMat=   1 IRICut=       1 DoRegI=T DoRafI=F ISym2E= 0.
 FoFCou: FMM=F IPFlag=           0 FMFlag=      100000 FMFlg1=           0
         NFxFlg=           0 DoJE=F BraDBF=F KetDBF=F FulRan=T
         wScrn=  0.000000 ICntrl=       0 IOpCl=  0 I1Cent=           0 NGrid=           0
         NMat0=    1 NMatS0=      1 NMatT0=    0 NMatD0=    1 NMtDS0=    0 NMtDT0=    0
 Symmetry not used in FoFCou.
 Defaulting to unpruned grid for atomic number  83.
 Defaulting to unpruned grid for atomic number  83.
 Defaulting to unpruned grid for atomic number  83.
 Defaulting to unpruned grid for atomic number  83.
 E= -7517.82058254717    
 DIIS: error= 5.97D-03 at cycle   1 NSaved=   1.
 NSaved= 1 IEnMin= 1 EnMin= -7517.82058254717     IErMin= 1 ErrMin= 5.97D-03
 ErrMax= 5.97D-03  0.00D+00 EMaxC= 1.00D-01 BMatC= 8.81D-03 BMatP= 8.81D-03
 IDIUse=3 WtCom= 9.40D-01 WtEn= 5.97D-02
 Coeff-Com:  0.100D+01
 Coeff-En:   0.100D+01
 Coeff:      0.100D+01
 Gap=     7.546 Goal=   None    Shift=    0.000
 GapD=    7.546 DampG=2.000 DampE=1.000 DampFc=2.0000 IDamp=-1.
 RMSDP=1.85D-04 MaxDP=4.66D-03              OVMax= 2.13D-02

 Cycle   2  Pass 1  IDiag  1:
 RMSU=  1.84D-04    CP:  1.00D+00
 E= -7517.82059560958     Delta-E=       -0.000013062403 Rises=F Damp=F
 DIIS: error= 1.40D-03 at cycle   2 NSaved=   2.
 NSaved= 2 IEnMin= 2 EnMin= -7517.82059560958     IErMin= 2 ErrMin= 1.40D-03
 ErrMax= 1.40D-03  0.00D+00 EMaxC= 1.00D-01 BMatC= 1.67D-03 BMatP= 8.81D-03
 IDIUse=3 WtCom= 9.86D-01 WtEn= 1.40D-02
 Coeff-Com:  0.198D+00 0.802D+00
 Coeff-En:   0.497D+00 0.503D+00
 Coeff:      0.202D+00 0.798D+00
 Gap=     0.123 Goal=   None    Shift=    0.000
 RMSDP=2.26D-04 MaxDP=1.04D-02 DE=-1.31D-05 OVMax= 1.80D-02

 Cycle   3  Pass 1  IDiag  1:
 RMSU=  2.08D-04    CP:  9.99D-01  5.32D-01
 E= -7517.81811250690     Delta-E=        0.002483102682 Rises=F Damp=F
 DIIS: error= 2.05D-03 at cycle   3 NSaved=   3.
 NSaved= 3 IEnMin= 2 EnMin= -7517.82059560958     IErMin= 2 ErrMin= 1.40D-03
 ErrMax= 2.05D-03  0.00D+00 EMaxC= 1.00D-01 BMatC= 4.24D-03 BMatP= 1.67D-03
 IDIUse=3 WtCom= 1.81D-01 WtEn= 8.19D-01
 Coeff-Com:  0.991D-02 0.612D+00 0.378D+00
 Coeff-En:   0.000D+00 0.682D+00 0.318D+00
 Coeff:      0.179D-02 0.669D+00 0.329D+00
 Gap=     0.126 Goal=   None    Shift=    0.000
 RMSDP=1.33D-04 MaxDP=6.01D-03 DE= 2.48D-03 OVMax= 1.32D-02

 Cycle   4  Pass 1  IDiag  1:
 RMSU=  5.52D-05    CP:  9.99D-01  7.88D-01  4.68D-01
 E= -7517.82170698912     Delta-E=       -0.003594482223 Rises=F Damp=F
 DIIS: error= 4.87D-04 at cycle   4 NSaved=   4.
 NSaved= 4 IEnMin= 4 EnMin= -7517.82170698912     IErMin= 4 ErrMin= 4.87D-04
 ErrMax= 4.87D-04  0.00D+00 EMaxC= 1.00D-01 BMatC= 3.21D-04 BMatP= 1.67D-03
 IDIUse=3 WtCom= 9.95D-01 WtEn= 4.87D-03
 Coeff-Com:  0.256D-03 0.450D+00 0.233D+00 0.317D+00
 Coeff-En:   0.000D+00 0.135D+00 0.000D+00 0.865D+00
 Coeff:      0.255D-03 0.448D+00 0.231D+00 0.320D+00
 Gap=     0.125 Goal=   None    Shift=    0.000
 RMSDP=4.63D-05 MaxDP=2.27D-03 DE=-3.59D-03 OVMax= 4.40D-03

 Cycle   5  Pass 1  IDiag  1:
 RMSU=  1.47D-05    CP:  9.99D-01  8.55D-01  4.32D-01  2.57D-01
 E= -7517.82197919464     Delta-E=       -0.000272205525 Rises=F Damp=F
 DIIS: error= 1.05D-04 at cycle   5 NSaved=   5.
 NSaved= 5 IEnMin= 5 EnMin= -7517.82197919464     IErMin= 5 ErrMin= 1.05D-04
 ErrMax= 1.05D-04  0.00D+00 EMaxC= 1.00D-01 BMatC= 1.56D-05 BMatP= 3.21D-04
 IDIUse=3 WtCom= 9.99D-01 WtEn= 1.05D-03
 Coeff-Com: -0.988D-03 0.223D+00 0.105D+00 0.221D+00 0.451D+00
 Coeff-En:   0.000D+00 0.000D+00 0.000D+00 0.250D-01 0.975D+00
 Coeff:     -0.987D-03 0.223D+00 0.105D+00 0.221D+00 0.452D+00
 Gap=     0.125 Goal=   None    Shift=    0.000
 RMSDP=1.02D-05 MaxDP=5.28D-04 DE=-2.72D-04 OVMax= 1.02D-03

 Cycle   6  Pass 1  IDiag  1:
 RMSU=  4.22D-06    CP:  9.99D-01  8.65D-01  4.22D-01  3.78D-01  6.24D-01
 E= -7517.82199429556     Delta-E=       -0.000015100919 Rises=F Damp=F
 DIIS: error= 2.06D-05 at cycle   6 NSaved=   6.
 NSaved= 6 IEnMin= 6 EnMin= -7517.82199429556     IErMin= 6 ErrMin= 2.06D-05
 ErrMax= 2.06D-05  0.00D+00 EMaxC= 1.00D-01 BMatC= 6.19D-07 BMatP= 1.56D-05
 IDIUse=1 WtCom= 1.00D+00 WtEn= 0.00D+00
 Coeff-Com: -0.543D-03 0.974D-01 0.463D-01 0.104D+00 0.250D+00 0.503D+00
 Coeff:     -0.543D-03 0.974D-01 0.463D-01 0.104D+00 0.250D+00 0.503D+00
 Gap=     0.125 Goal=   None    Shift=    0.000
 RMSDP=3.66D-06 MaxDP=1.48D-04 DE=-1.51D-05 OVMax= 4.64D-04

 Cycle   7  Pass 1  IDiag  1:
 RMSU=  3.09D-06    CP:  9.99D-01  8.67D-01  4.25D-01  3.76D-01  6.79D-01
                    CP:  6.17D-01
 E= -7517.82199428904     Delta-E=        0.000000006519 Rises=F Damp=F
 DIIS: error= 2.46D-05 at cycle   7 NSaved=   7.
 NSaved= 7 IEnMin= 6 EnMin= -7517.82199429556     IErMin= 6 ErrMin= 2.06D-05
 ErrMax= 2.46D-05  0.00D+00 EMaxC= 1.00D-01 BMatC= 5.78D-07 BMatP= 6.19D-07
 IDIUse=1 WtCom= 1.00D+00 WtEn= 0.00D+00
 Coeff-Com: -0.154D-03 0.998D-02 0.581D-02 0.179D-01 0.723D-01 0.482D+00
 Coeff-Com:  0.412D+00
 Coeff:     -0.154D-03 0.998D-02 0.581D-02 0.179D-01 0.723D-01 0.482D+00
 Coeff:      0.412D+00
 Gap=     0.125 Goal=   None    Shift=    0.000
 RMSDP=2.39D-06 MaxDP=9.76D-05 DE= 6.52D-09 OVMax= 2.78D-04

 Cycle   8  Pass 1  IDiag  1:
 RMSU=  9.28D-07    CP:  9.99D-01  8.69D-01  4.27D-01  3.77D-01  6.94D-01
                    CP:  9.36D-01  4.75D-01
 E= -7517.82199500155     Delta-E=       -0.000000712507 Rises=F Damp=F
 DIIS: error= 4.69D-06 at cycle   8 NSaved=   8.
 NSaved= 8 IEnMin= 8 EnMin= -7517.82199500155     IErMin= 8 ErrMin= 4.69D-06
 ErrMax= 4.69D-06  0.00D+00 EMaxC= 1.00D-01 BMatC= 4.67D-08 BMatP= 5.78D-07
 IDIUse=1 WtCom= 1.00D+00 WtEn= 0.00D+00
 Coeff-Com:  0.490D-05-0.137D-01-0.548D-02-0.850D-02-0.205D-02 0.228D+00
 Coeff-Com:  0.284D+00 0.518D+00
 Coeff:      0.490D-05-0.137D-01-0.548D-02-0.850D-02-0.205D-02 0.228D+00
 Coeff:      0.284D+00 0.518D+00
 Gap=     0.125 Goal=   None    Shift=    0.000
 RMSDP=6.66D-07 MaxDP=3.79D-05 DE=-7.13D-07 OVMax= 7.97D-05

 Cycle   9  Pass 1  IDiag  1:
 RMSU=  2.83D-07    CP:  9.99D-01  8.69D-01  4.28D-01  3.79D-01  7.03D-01
                    CP:  9.54D-01  5.85D-01  5.63D-01
 E= -7517.82199504885     Delta-E=       -0.000000047296 Rises=F Damp=F
 DIIS: error= 1.14D-06 at cycle   9 NSaved=   9.
 NSaved= 9 IEnMin= 9 EnMin= -7517.82199504885     IErMin= 9 ErrMin= 1.14D-06
 ErrMax= 1.14D-06  0.00D+00 EMaxC= 1.00D-01 BMatC= 3.27D-09 BMatP= 4.67D-08
 IDIUse=1 WtCom= 1.00D+00 WtEn= 0.00D+00
 Coeff-Com:  0.192D-04-0.907D-02-0.373D-02-0.659D-02-0.921D-02 0.835D-01
 Coeff-Com:  0.127D+00 0.299D+00 0.519D+00
 Coeff:      0.192D-04-0.907D-02-0.373D-02-0.659D-02-0.921D-02 0.835D-01
 Coeff:      0.127D+00 0.299D+00 0.519D+00
 Gap=     0.125 Goal=   None    Shift=    0.000
 RMSDP=1.72D-07 MaxDP=1.23D-05 DE=-4.73D-08 OVMax= 2.32D-05

 Cycle  10  Pass 1  IDiag  1:
 RMSU=  1.01D-07    CP:  9.99D-01  8.70D-01  4.29D-01  3.80D-01  7.08D-01
                    CP:  9.56D-01  5.89D-01  6.43D-01  7.83D-01
 E= -7517.82199505212     Delta-E=       -0.000000003271 Rises=F Damp=F
 DIIS: error= 2.92D-07 at cycle  10 NSaved=  10.
 NSaved=10 IEnMin=10 EnMin= -7517.82199505212     IErMin=10 ErrMin= 2.92D-07
 ErrMax= 2.92D-07  0.00D+00 EMaxC= 1.00D-01 BMatC= 1.41D-10 BMatP= 3.27D-09
 IDIUse=1 WtCom= 1.00D+00 WtEn= 0.00D+00
 Coeff-Com:  0.597D-05-0.215D-02-0.868D-03-0.157D-02-0.340D-02 0.122D-01
 Coeff-Com:  0.225D-01 0.676D-01 0.199D+00 0.707D+00
 Coeff:      0.597D-05-0.215D-02-0.868D-03-0.157D-02-0.340D-02 0.122D-01
 Coeff:      0.225D-01 0.676D-01 0.199D+00 0.707D+00
 Gap=     0.125 Goal=   None    Shift=    0.000
 RMSDP=7.75D-08 MaxDP=3.57D-06 DE=-3.27D-09 OVMax= 8.95D-06

 Cycle  11  Pass 1  IDiag  1:
 RMSU=  6.55D-08    CP:  9.99D-01  8.70D-01  4.29D-01  3.80D-01  7.08D-01
                    CP:  9.61D-01  5.93D-01  6.47D-01  8.67D-01  8.37D-01
 E= -7517.82199505151     Delta-E=        0.000000000611 Rises=F Damp=F
 DIIS: error= 4.76D-07 at cycle  11 NSaved=  11.
 NSaved=11 IEnMin=10 EnMin= -7517.82199505212     IErMin=10 ErrMin= 2.92D-07
 ErrMax= 4.76D-07  0.00D+00 EMaxC= 1.00D-01 BMatC= 2.60D-10 BMatP= 1.41D-10
 IDIUse=1 WtCom= 1.00D+00 WtEn= 0.00D+00
 Coeff-Com:  0.126D-05 0.155D-04 0.270D-04-0.299D-05-0.112D-02-0.697D-02
 Coeff-Com: -0.711D-02-0.259D-02 0.689D-01 0.625D+00 0.324D+00
 Coeff:      0.126D-05 0.155D-04 0.270D-04-0.299D-05-0.112D-02-0.697D-02
 Coeff:     -0.711D-02-0.259D-02 0.689D-01 0.625D+00 0.324D+00
 Gap=     0.125 Goal=   None    Shift=    0.000
 RMSDP=4.98D-08 MaxDP=1.89D-06 DE= 6.11D-10 OVMax= 6.17D-06

 Cycle  12  Pass 1  IDiag  1:
 RMSU=  1.73D-08    CP:  9.99D-01  8.70D-01  4.29D-01  3.80D-01  7.08D-01
                    CP:  9.63D-01  5.94D-01  6.50D-01  8.81D-01  1.05D+00
                    CP:  4.00D-01
 E= -7517.82199505217     Delta-E=       -0.000000000666 Rises=F Damp=F
 DIIS: error= 6.16D-08 at cycle  12 NSaved=  12.
 NSaved=12 IEnMin=12 EnMin= -7517.82199505217     IErMin=12 ErrMin= 6.16D-08
 ErrMax= 6.16D-08  0.00D+00 EMaxC= 1.00D-01 BMatC= 7.50D-12 BMatP= 1.41D-10
 IDIUse=1 WtCom= 1.00D+00 WtEn= 0.00D+00
 Coeff-Com: -0.462D-06 0.446D-03 0.198D-03 0.302D-03 0.150D-04-0.667D-02
 Coeff-Com: -0.910D-02-0.155D-01 0.194D-02 0.256D+00 0.179D+00 0.594D+00
 Coeff:     -0.462D-06 0.446D-03 0.198D-03 0.302D-03 0.150D-04-0.667D-02
 Coeff:     -0.910D-02-0.155D-01 0.194D-02 0.256D+00 0.179D+00 0.594D+00
 Gap=     0.125 Goal=   None    Shift=    0.000
 RMSDP=1.06D-08 MaxDP=6.48D-07 DE=-6.66D-10 OVMax= 1.63D-06

 Cycle  13  Pass 1  IDiag  1:
 RMSU=  6.37D-09    CP:  9.99D-01  8.70D-01  4.29D-01  3.80D-01  7.08D-01
                    CP:  9.63D-01  5.95D-01  6.53D-01  8.94D-01  1.08D+00
                    CP:  4.59D-01  7.87D-01
 E= -7517.82199505208     Delta-E=        0.000000000095 Rises=F Damp=F
 DIIS: error= 1.78D-08 at cycle  13 NSaved=  13.
 NSaved=13 IEnMin=12 EnMin= -7517.82199505217     IErMin=13 ErrMin= 1.78D-08
 ErrMax= 1.78D-08  0.00D+00 EMaxC= 1.00D-01 BMatC= 7.79D-13 BMatP= 7.50D-12
 IDIUse=1 WtCom= 1.00D+00 WtEn= 0.00D+00
 Coeff-Com: -0.344D-06 0.225D-03 0.994D-04 0.155D-03 0.120D-03-0.273D-02
 Coeff-Com: -0.393D-02-0.758D-02-0.538D-02 0.717D-01 0.598D-01 0.316D+00
 Coeff-Com:  0.571D+00
 Coeff:     -0.344D-06 0.225D-03 0.994D-04 0.155D-03 0.120D-03-0.273D-02
 Coeff:     -0.393D-02-0.758D-02-0.538D-02 0.717D-01 0.598D-01 0.316D+00
 Coeff:      0.571D+00
 Gap=     0.125 Goal=   None    Shift=    0.000
 RMSDP=3.67D-09 MaxDP=2.10D-07 DE= 9.46D-11 OVMax= 5.42D-07

 SCF Done:  E(RPBE1PBE) =  -7517.82199505     A.U. after   13 cycles
            NFock= 13  Conv=0.37D-08     -V/T= 2.1284
 KE= 6.662190719137D+03 PE=-2.481190209492D+04 EE= 7.021715204834D+03
 Leave Link  502 at Tue Mar  6 12:30:43 2018, MaxMem=   536870912 cpu:      2695.8
 (Enter /share/apps//mg09/l701.exe)
 Compute integral first derivatives.
 ... and contract with generalized density number  0.
   1 Symmetry operations used in ECPInt.
 ECPInt:  NShTT=   10440 NPrTT=   41973 LenC2=    9707 LenP2D=   27642.
 LDataN:  DoStor=T MaxTD1= 9 Len=  602
 Leave Link  701 at Tue Mar  6 12:31:06 2018, MaxMem=   536870912 cpu:        84.1
 (Enter /share/apps//mg09/l702.exe)
 L702 exits ... SP integral derivatives will be done elsewhere.
 Leave Link  702 at Tue Mar  6 12:31:06 2018, MaxMem=   536870912 cpu:         0.1
 (Enter /share/apps//mg09/l703.exe)
 Compute integral first derivatives, UseDBF=F ICtDFT=           0.
 Integral derivatives from FoFJK, PRISM(SPDF).
 Calling FoFJK, ICntrl=      2127 FMM=F ISym2X=0 I1Cent= 0 IOpClX= 0 NMat=1 NMatS=1 NMatT=0.
 FoFJK:  IHMeth= 1 ICntrl=    2127 DoSepK=F KAlg= 0 I1Cent=   0 FoldK=F
 IRaf=         0 NMat=   1 IRICut=       1 DoRegI=T DoRafI=F ISym2E= 0.
 FoFCou: FMM=F IPFlag=           0 FMFlag=      100000 FMFlg1=         800
         NFxFlg=           0 DoJE=F BraDBF=F KetDBF=F FulRan=T
         wScrn=  0.000000 ICntrl=    2127 IOpCl=  0 I1Cent=           0 NGrid=           0
         NMat0=    1 NMatS0=      1 NMatT0=    0 NMatD0=    1 NMtDS0=    0 NMtDT0=    0
 Symmetry not used in FoFCou.
 Defaulting to unpruned grid for atomic number  83.
 Defaulting to unpruned grid for atomic number  83.
 Defaulting to unpruned grid for atomic number  83.
 Defaulting to unpruned grid for atomic number  83.
 Leave Link  703 at Tue Mar  6 12:35:18 2018, MaxMem=   536870912 cpu:       892.2
 (Enter /share/apps//mg09/l716.exe)
 Dipole        = 4.39842013D-01-6.86809268D-01-5.27981634D-01
 ***** Axes restored to original set *****
 -------------------------------------------------------------------
 Center     Atomic                   Forces (Hartrees/Bohr)
 Number     Number              X              Y              Z
 -------------------------------------------------------------------
      1       32          -0.005721425   -0.005103504   -0.004888590
      2       83          -0.000529026    0.000205703   -0.000973866
      3       50           0.007713777   -0.002120057   -0.001312801
      4       83          -0.002236185    0.001896102    0.001814079
      5       32          -0.000323690   -0.006399343    0.003832996
      6       83           0.000041593    0.001698494    0.001240466
      7       50           0.001756238    0.002351694    0.005752414
      8       83          -0.002818519    0.002427230    0.000261758
      9       32           0.002117237    0.005043680   -0.005726456
 -------------------------------------------------------------------
 Cartesian Forces:  Max     0.007713777 RMS     0.003548880
 Leave Link  716 at Tue Mar  6 12:35:18 2018, MaxMem=   536870912 cpu:         0.1
 (Enter /share/apps//mg09/l103.exe)

 GradGradGradGradGradGradGradGradGradGradGradGradGradGradGradGradGradGrad
 Berny optimization.
 Search for a local minimum.
 Step number   2 out of a maximum of  100
 All quantities printed in internal units (Hartrees-Bohrs-Radians)
 Update second derivatives using D2CorN and points    1    2
 DE= -6.30D-03 DEPred=-4.60D-03 R= 1.37D+00
 TightC=F SS=  1.41D+00  RLast= 2.31D-01 DXNew= 5.0454D-01 6.9315D-01
 Trust test= 1.37D+00 RLast= 2.31D-01 DXMaxT set to 5.05D-01
 ITU=  1  0
     Eigenvalues ---    0.07957   0.09370   0.11942   0.12127   0.12670
     Eigenvalues ---    0.13538   0.14367   0.14740   0.15719   0.16355
     Eigenvalues ---    0.17449   0.21754   0.22992   0.23486   0.23661
     Eigenvalues ---    0.24314   0.26178   0.28331   0.29032   0.30703
     Eigenvalues ---    0.31635
 RFO step:  Lambda=-5.78061593D-04 EMin= 7.95650002D-02
 Quartic linear search produced a step of  0.64244.
 TrRot= -0.000205  0.000087  0.000013  0.000005 -0.000034  0.000005
 MatCor failed.
 Variable       Old X    -DE/DX   Delta X   Delta X   Delta X     New X
                                 (Linear)    (Quad)   (Total)
    X1        1.11400  -0.00572  -0.03010  -0.01113  -0.04158   1.07242
    Y1        3.63416  -0.00510  -0.02853  -0.00740  -0.03583   3.59832
    Z1        3.16814  -0.00489  -0.03307  -0.00595  -0.03896   3.12918
    X2        1.20143  -0.00053  -0.01227   0.00742  -0.00495   1.19648
    Y2       -3.47632   0.00021   0.02793  -0.01802   0.01001  -3.46631
    Z2       -2.03150  -0.00097   0.01379  -0.02091  -0.00706  -2.03856
    X3       -4.16420   0.00771   0.05092   0.00855   0.05919  -4.10501
    Y3        3.01171  -0.00212  -0.02133  -0.00037  -0.02166   2.99005
[...]
     X      X       X         X            X            X                                                                            
     X      X       X         X            X            X                                                                            
     X      X       X         X            X            X                                                                            
     X      X       X         X            X            X                                                                            
     X      X       X         X            X            X                                                                            
     X      X       X         X            X                                                                                         
     X              X         X            X                                                                                         
                    X                                                                                                                
                    X                                                                                                                
                    X                                                                                                                
                    X                                                                                                                
                    X                                                                                                                
                    X                                                                                                                
                    X                                                                                                                
                    X                                                                                                                
 
 ***** Axes restored to original set *****
 -------------------------------------------------------------------
 Center     Atomic                   Forces (Hartrees/Bohr)
 Number     Number              X              Y              Z
 -------------------------------------------------------------------
      1       32          -0.000048476    0.000049097    0.000087761
      2       83           0.000025989   -0.000050224    0.000016323
      3       50           0.000075701    0.000018715    0.000038011
      4       83          -0.000013155    0.000008394    0.000010860
      5       32          -0.000011769   -0.000056178   -0.000009212
      6       83          -0.000032306    0.000000489    0.000025294
      7       50          -0.000001951    0.000021323   -0.000064220
      8       83          -0.000010075   -0.000018251   -0.000063257
      9       32           0.000016042    0.000026634   -0.000041559
 -------------------------------------------------------------------
 Cartesian Forces:  Max     0.000087761 RMS     0.000038773
 Force constants in Cartesian coordinates: 
                1             2             3             4             5 
      1  0.489198D-01
      2  0.190575D-02  0.666490D-01
      3  0.133883D-01 -0.124948D-03  0.540443D-01
      4  0.797860D-03 -0.706236D-02 -0.113534D-02  0.647434D-01
      5  0.352920D-03 -0.437823D-02 -0.204299D-02 -0.418816D-02  0.720563D-01
      6  0.441367D-02 -0.560436D-02 -0.419111D-02 -0.248729D-02  0.205550D-01
      7 -0.241282D-01 -0.242870D-03 -0.786268D-02 -0.201701D-02  0.928621D-03
      8 -0.459846D-02 -0.206336D-02 -0.340802D-02  0.728485D-02 -0.496574D-03
      9 -0.113602D-01 -0.165987D-02 -0.134239D-02  0.355368D-02  0.954458D-03
     10 -0.458839D-02  0.123828D-01 -0.264233D-02 -0.633125D-02 -0.376346D-02
     11  0.168234D-01 -0.240659D-01 -0.107709D-03 -0.245791D-02 -0.928824D-02
     12 -0.444781D-02 -0.262307D-03 -0.967307D-03 -0.147751D-01 -0.138636D-01
     13 -0.299097D-02  0.359554D-02 -0.773898D-02  0.916558D-03  0.261207D-02
     14  0.202897D-02 -0.705595D-02  0.781161D-02 -0.205030D-03 -0.456455D-02
     15 -0.731817D-02  0.124819D-01 -0.244529D-01 -0.556201D-03 -0.254608D-02
     16 -0.421145D-02  0.512974D-03  0.199644D-03 -0.407705D-01  0.694431D-02
     17 -0.163852D-02 -0.509449D-02 -0.185532D-02  0.667052D-02 -0.714843D-02
     18 -0.516486D-02 -0.338196D-02 -0.139589D-02  0.186857D-01 -0.384497D-02
     19 -0.466458D-02  0.242631D-02 -0.235915D-02 -0.524906D-02  0.115880D-01
     20 -0.441883D-03 -0.191478D-02 -0.522814D-02  0.914226D-02 -0.152769D-01
     21 -0.587729D-03 -0.916570D-04 -0.498055D-02 -0.563365D-02  0.242179D-02
     22 -0.156630D-02 -0.541827D-03  0.440445D-02 -0.109762D-01 -0.133101D-01
     23 -0.183721D-02 -0.304326D-02 -0.436363D-02 -0.106848D-01 -0.308223D-01
     24  0.713614D-02 -0.535357D-02 -0.958338D-02  0.150089D-02 -0.274406D-02
     25 -0.756777D-02 -0.129763D-01  0.374612D-02 -0.111375D-02 -0.116422D-02
     26 -0.125950D-01 -0.190330D-01  0.931915D-02  0.150064D-02 -0.811183D-04
     27  0.394068D-02  0.399679D-02 -0.713071D-02  0.847305D-03  0.111044D-02
                6             7             8             9            10 
      6  0.461028D-01
      7 -0.122328D-02  0.679026D-01
      8  0.359295D-03 -0.353473D-02  0.648971D-01
      9 -0.230073D-02 -0.666055D-02 -0.573200D-02  0.415369D-01
     10 -0.154624D-01 -0.580874D-02  0.100701D-02 -0.110712D-02  0.644991D-01
     11 -0.101256D-01  0.717049D-03 -0.381689D-02 -0.108033D-02 -0.207052D-01
     12 -0.301923D-01  0.351573D-02 -0.126661D-02 -0.508968D-03  0.100809D-01
     13 -0.622747D-03 -0.186820D-01 -0.146141D-01  0.158957D-01  0.103261D-02
     14  0.324471D-02 -0.970120D-02 -0.925806D-02  0.832421D-02 -0.106117D-02
     15 -0.950306D-03  0.149387D-01  0.115104D-01 -0.854215D-02 -0.415541D-03
     16  0.180576D-01 -0.148264D-02 -0.202136D-03  0.190508D-02 -0.573291D-02
     17 -0.283161D-02 -0.306596D-02 -0.355297D-01 -0.736876D-02  0.219529D-02
     18 -0.599402D-02  0.229351D-02 -0.818607D-02  0.125005D-02 -0.219240D-02
     19 -0.587957D-02 -0.130535D-02  0.381252D-02  0.424873D-02 -0.179685D-02
     20  0.248469D-02  0.336478D-02 -0.831294D-03 -0.459716D-02 -0.115219D-02
     21 -0.223715D-02  0.223701D-02 -0.423296D-02 -0.132900D-01  0.104207D-02
     22  0.185625D-02 -0.698655D-02 -0.554638D-03  0.215208D-02 -0.428836D-02
     23 -0.210336D-02  0.329769D-02 -0.309180D-02 -0.379805D-02  0.228726D-02
     24  0.273298D-02 -0.120748D-02 -0.174075D-02 -0.342610D-02  0.198534D-02
     25  0.134775D-02 -0.749209D-02  0.113997D-01 -0.862745D-02 -0.369852D-01
     26 -0.597883D-02  0.823662D-02 -0.980942D-02  0.149575D-01  0.880966D-02
     27 -0.297018D-02 -0.603094D-02  0.126967D-01 -0.133765D-01  0.871142D-02
               11            12            13            14            15 
     11  0.542061D-01
     12 -0.781977D-02  0.733946D-01
     13  0.335479D-02 -0.423497D-02  0.591681D-01
     14 -0.470293D-02  0.786612D-03 -0.681306D-02  0.741968D-01
     15  0.146569D-02 -0.195808D-02 -0.810710D-02 -0.110208D-01  0.485739D-01
     16 -0.451692D-02 -0.125596D-02 -0.141015D-02  0.142522D-02  0.926793D-03
     17  0.103414D-02  0.386344D-03 -0.213472D-02 -0.377391D-02 -0.444626D-03
     18 -0.287527D-02 -0.241012D-02  0.338621D-02  0.108765D-02  0.122205D-04
     19 -0.327560D-02 -0.612827D-02 -0.357015D-02 -0.702085D-02 -0.420786D-02
     20  0.157449D-02  0.589306D-02 -0.750515D-02 -0.202901D-01 -0.111067D-01
     21 -0.271776D-03 -0.391216D-02 -0.469709D-02 -0.829344D-02 -0.902657D-02
     22  0.715267D-03  0.365063D-02 -0.301544D-01  0.207969D-01  0.641547D-02
     23 -0.103990D-01  0.167979D-01  0.230303D-01 -0.219182D-01 -0.279274D-02
     24  0.202693D-01 -0.276478D-01  0.646063D-02 -0.205180D-02 -0.884219D-03
     25  0.934509D-02  0.135949D-01 -0.430951D-02  0.550203D-03 -0.167608D-02
     26 -0.454180D-02 -0.651662D-03 -0.152572D-02 -0.263312D-02  0.245300D-02
     27  0.545471D-03 -0.579785D-02 -0.341708D-03  0.111241D-03 -0.277190D-02
               16            17            18            19            20 
     16  0.668537D-01
     17  0.129753D-01  0.707753D-01
     18 -0.140895D-01  0.659759D-02  0.488743D-01
     19 -0.334821D-02 -0.797241D-02  0.498121D-02  0.348558D-01
     20 -0.660135D-02 -0.128127D-01  0.118938D-01  0.291269D-02  0.474164D-01
     21  0.501551D-02  0.127017D-01 -0.188139D-01  0.110745D-01 -0.378954D-02
     22 -0.326600D-02 -0.171951D-04  0.246656D-02 -0.151836D-01 -0.342656D-02
     23 -0.550023D-02  0.187991D-02  0.539871D-02 -0.496638D-02  0.226936D-02
     24 -0.273468D-02  0.845744D-03 -0.138247D-03 -0.551147D-02  0.169062D-02
     25 -0.663185D-02 -0.701227D-02 -0.103665D-01  0.262025D-03  0.370740D-02
     26 -0.503712D-02 -0.933009D-02 -0.668943D-02  0.249567D-02 -0.134429D-03
     27 -0.802444D-02 -0.803110D-02 -0.213844D-01  0.378185D-02  0.275946D-02
               21            22            23            24            25 
     21  0.622851D-01
     22 -0.474497D-02  0.735209D-01
     23  0.192962D-02 -0.158328D-02  0.661116D-01
     24 -0.410164D-02 -0.164032D-01 -0.117061D-01  0.491459D-01
     25 -0.370570D-02 -0.109946D-02 -0.404335D-02  0.877383D-02  0.649376D-01
     26 -0.373765D-03 -0.207856D-02 -0.986427D-03  0.790686D-03  0.193824D-03
     27 -0.592308D-02  0.202717D-03  0.637634D-03 -0.609750D-02 -0.308688D-02
               26            27 
     26  0.465494D-01
     27 -0.138266D-01  0.654522D-01
 Leave Link  716 at Tue Mar  6 15:43:39 2018, MaxMem=   536870912 cpu:         0.1
 (Enter /share/apps//mg09/l103.exe)

 GradGradGradGradGradGradGradGradGradGradGradGradGradGradGradGradGradGrad
 Berny optimization.
 Search for a local minimum.
 Step number   1 out of a maximum of    2
 All quantities printed in internal units (Hartrees-Bohrs-Radians)
 Second derivative matrix not updated -- analytic derivatives used.
 ITU=  0
     Eigenvalues ---    0.01072   0.02091   0.03102   0.03891   0.04474
     Eigenvalues ---    0.04916   0.05297   0.05530   0.05712   0.06078
     Eigenvalues ---    0.06900   0.07417   0.07936   0.08746   0.10053
     Eigenvalues ---    0.10904   0.11662   0.12645   0.13047   0.13407
     Eigenvalues ---    0.14621
 Angle between quadratic step and forces=  48.15 degrees.
 Linear search not attempted -- first point.
 TrRot= -0.000007 -0.000026  0.000036  0.000005 -0.000010  0.000005
 Variable       Old X    -DE/DX   Delta X   Delta X   Delta X     New X
                                 (Linear)    (Quad)   (Total)
    X1        1.04640  -0.00005   0.00000  -0.00171  -0.00179   1.04462
    Y1        3.57040   0.00005   0.00000   0.00069   0.00068   3.57108
    Z1        3.11867   0.00009   0.00000   0.00250   0.00255   3.12122
    X2        1.19278   0.00003   0.00000  -0.00029  -0.00024   1.19254
    Y2       -3.46918  -0.00005   0.00000  -0.00135  -0.00136  -3.47054
    Z2       -2.03933   0.00002   0.00000   0.00252   0.00257  -2.03676
    X3       -4.11533   0.00008   0.00000   0.00105   0.00100  -4.11433
    Y3        2.97854   0.00002   0.00000   0.00037   0.00030   2.97883
    Z3        1.38769   0.00004   0.00000   0.00097   0.00097   1.38865
    X4        3.29552  -0.00001   0.00000   0.00165   0.00163   3.29714
    Y4       -1.36930   0.00001   0.00000   0.00209   0.00210  -1.36720
    Z4        2.87511   0.00001   0.00000  -0.00033  -0.00026   2.87486
    X5       -0.33180  -0.00001   0.00000   0.00031   0.00026  -0.33153
    Y5        5.29460  -0.00006   0.00000  -0.00072  -0.00075   5.29386
    Z5       -1.40388  -0.00001   0.00000   0.00046   0.00050  -1.40338
    X6       -3.90415  -0.00003   0.00000  -0.00159  -0.00157  -3.90572
    Y6       -2.55172   0.00000   0.00000   0.00087   0.00081  -2.55091
    Z6        0.22116   0.00003   0.00000  -0.00113  -0.00113   0.22003
    X7       -2.17051   0.00000   0.00000   0.00079   0.00081  -2.16970
    Y7        0.95260   0.00002   0.00000   0.00055   0.00050   0.95310
    Z7       -3.99594  -0.00006   0.00000  -0.00139  -0.00137  -3.99731
    X8        3.51325  -0.00001   0.00000  -0.00075  -0.00076   3.51249
    Y8        1.82724  -0.00002   0.00000  -0.00092  -0.00091   1.82632
    Z8       -1.91089  -0.00006   0.00000  -0.00254  -0.00247  -1.91335
    X9       -1.59095   0.00002   0.00000   0.00071   0.00066  -1.59029
    Y9       -0.37983   0.00003   0.00000  -0.00132  -0.00136  -0.38119
    Z9        4.67968  -0.00004   0.00000  -0.00138  -0.00136   4.67832
         Item               Value     Threshold  Converged?
 Maximum Force            0.000088     0.000450     YES
 RMS     Force            0.000039     0.000300     YES
 Maximum Displacement     0.002569     0.001800     NO 
 RMS     Displacement     0.001326     0.001200     NO 
 Predicted change in Energy=-4.606887D-07
 GradGradGradGradGradGradGradGradGradGradGradGradGradGradGradGradGradGrad

 Leave Link  103 at Tue Mar  6 15:43:39 2018, MaxMem=   536870912 cpu:         0.1
 (Enter /share/apps//mg09/l9999.exe)
 1\1\GINC-COMPUTE-0-0\Freq\RPBE1PBE\def2TZVP\Bi4Ge3Sn2\RODRIGO\06-Mar-2
 018\0\\#P Geom=AllCheck Guess=TCheck SCRF=Check GenChk RPBE1PBE/def2TZ
 VP Freq\\01Final_coords.xyz_25\\0,1\Ge,0.5537326688,1.8893749809,1.650
 3306858\Bi,0.6311946256,-1.8358105014,-1.0791677921\Sn,-2.1777380236,1
 .5761734454,0.7343319495\Bi,1.7439120093,-0.7246034768,1.5214446011\Ge
 ,-0.1755785903,2.8017838755,-0.7428990938\Bi,-2.0659853658,-1.35031139
 7,0.1170334157\Sn,-1.1485819711,0.5040938071,-2.1145602599\Bi,1.859132
 5947,0.9669315379,-1.0111973683\Ge,-0.8418969484,-0.2009952718,2.47637
 88618\\Version=ES64L-G09RevD.01\State=1-A\HF=-7517.8238054\RMSD=9.854e
 -09\RMSF=3.877e-05\ZeroPoint=0.005902\Thermal=0.0233055\Dipole=0.45795
 94,-0.7262409,-0.5457406\DipoleDeriv=-0.0455538,0.0825235,0.0067375,0.
 0603796,-0.0606855,0.0738534,-0.0579845,0.0078506,-0.0006324,-0.085825
 2,-0.0484161,-0.0381891,-0.0280525,-0.0097573,-0.0038135,-0.0596886,0.
 0257904,0.0180003,0.2500881,-0.2044675,-0.0929728,-0.1474498,0.0538261
 ,0.0761489,-0.0588282,0.0652468,0.0425674,0.0214332,-0.0113968,0.10025
 04,0.0320748,-0.00252,0.0164794,0.0191088,0.0222505,-0.038286,-0.21020
 34,0.0165955,0.0051224,0.0338337,0.146995,-0.0971423,-0.004515,-0.1055
 723,-0.1671291,0.0370427,0.099675,0.0165894,0.0112329,-0.0541055,-0.02
 0831,0.0209629,-0.0338787,-0.180761,0.1054094,0.0180766,0.0956443,0.03
 3356,-0.0030199,-0.0199408,0.1049796,-0.0265703,0.268692,0.0866462,0.0
 149585,0.0014058,0.0158245,0.0422087,-0.0300903,0.0298306,0.0180963,0.
 0151859,-0.1590371,0.0324514,-0.0945878,-0.0111991,-0.1129418,0.005336
 3,0.0061346,0.0267868,0.0423628\Polar=381.543088,-8.2666563,375.942684
 1,1.0108067,-0.4367013,371.670017\PG=C01 [X(Bi4Ge3Sn2)]\NImag=0\\0.048
 91981,0.00190575,0.06664902,0.01338827,-0.00012495,0.05404426,0.000797
 86,-0.00706236,-0.00113534,0.06474336,0.00035292,-0.00437823,-0.002042
 99,-0.00418816,0.07205634,0.00441367,-0.00560436,-0.00419111,-0.002487
 29,0.02055503,0.04610277,-0.02412821,-0.00024287,-0.00786268,-0.002017
 01,0.00092862,-0.00122328,0.06790263,-0.00459846,-0.00206336,-0.003408
 02,0.00728485,-0.00049657,0.00035929,-0.00353473,0.06489706,-0.0113602
 0,-0.00165987,-0.00134239,0.00355368,0.00095446,-0.00230073,-0.0066605
 5,-0.00573200,0.04153686,-0.00458839,0.01238280,-0.00264233,-0.0063312
 5,-0.00376346,-0.01546236,-0.00580874,0.00100701,-0.00110712,0.0644990
 5,0.01682344,-0.02406591,-0.00010771,-0.00245791,-0.00928824,-0.010125
 57,0.00071705,-0.00381689,-0.00108033,-0.02070521,0.05420613,-0.004447
 81,-0.00026231,-0.00096731,-0.01477514,-0.01386361,-0.03019226,0.00351
 573,-0.00126661,-0.00050897,0.01008092,-0.00781977,0.07339456,-0.00299
 097,0.00359554,-0.00773898,0.00091656,0.00261207,-0.00062275,-0.018682
 04,-0.01461407,0.01589575,0.00103261,0.00335479,-0.00423497,0.05916805
 ,0.00202897,-0.00705595,0.00781161,-0.00020503,-0.00456455,0.00324471,
 -0.00970120,-0.00925806,0.00832421,-0.00106117,-0.00470293,0.00078661,
 -0.00681306,0.07419679,-0.00731817,0.01248188,-0.02445292,-0.00055620,
 -0.00254608,-0.00095031,0.01493869,0.01151041,-0.00854215,-0.00041554,
 0.00146569,-0.00195808,-0.00810710,-0.01102079,0.04857393,-0.00421145,
 0.00051297,0.00019964,-0.04077050,0.00694431,0.01805757,-0.00148264,-0
 .00020214,0.00190508,-0.00573291,-0.00451692,-0.00125596,-0.00141015,0
 .00142522,0.00092679,0.06685370,-0.00163852,-0.00509449,-0.00185532,0.
 00667052,-0.00714843,-0.00283161,-0.00306596,-0.03552967,-0.00736876,0
 .00219529,0.00103414,0.00038634,-0.00213472,-0.00377391,-0.00044463,0.
 01297527,0.07077526,-0.00516486,-0.00338196,-0.00139589,0.01868575,-0.
 00384497,-0.00599402,0.00229351,-0.00818607,0.00125005,-0.00219240,-0.
 00287527,-0.00241012,0.00338621,0.00108765,0.00001222,-0.01408952,0.00
 659759,0.04887431,-0.00466458,0.00242631,-0.00235915,-0.00524906,0.011
 58804,-0.00587957,-0.00130535,0.00381252,0.00424873,-0.00179685,-0.003
 27560,-0.00612827,-0.00357015,-0.00702085,-0.00420786,-0.00334821,-0.0
 0797241,0.00498121,0.03485580,-0.00044188,-0.00191478,-0.00522814,0.00
 914226,-0.01527693,0.00248469,0.00336478,-0.00083129,-0.00459716,-0.00
 115219,0.00157449,0.00589306,-0.00750515,-0.02029011,-0.01110674,-0.00
 660135,-0.01281272,0.01189375,0.00291269,0.04741640,-0.00058773,-0.000
 09166,-0.00498055,-0.00563365,0.00242179,-0.00223715,0.00223701,-0.004
 23296,-0.01329003,0.00104207,-0.00027178,-0.00391216,-0.00469709,-0.00
 829344,-0.00902657,0.00501551,0.01270174,-0.01881390,0.01107454,-0.003
 78954,0.06228508,-0.00156630,-0.00054183,0.00440445,-0.01097620,-0.013
 31012,0.00185625,-0.00698655,-0.00055464,0.00215208,-0.00428836,0.0007
 1527,0.00365063,-0.03015441,0.02079691,0.00641547,-0.00326600,-0.00001
 720,0.00246656,-0.01518363,-0.00342656,-0.00474497,0.07352091,-0.00183
 721,-0.00304326,-0.00436363,-0.01068480,-0.03082227,-0.00210336,0.0032
 9769,-0.00309180,-0.00379805,0.00228726,-0.01039899,0.01679794,0.02303
 032,-0.02191816,-0.00279274,-0.00550023,0.00187991,0.00539871,-0.00496
 638,0.00226936,0.00192962,-0.00158328,0.06611163,0.00713614,-0.0053535
 7,-0.00958338,0.00150089,-0.00274406,0.00273298,-0.00120748,-0.0017407
 5,-0.00342610,0.00198534,0.02026926,-0.02764781,0.00646063,-0.00205180
 ,-0.00088422,-0.00273468,0.00084574,-0.00013825,-0.00551147,0.00169062
 ,-0.00410164,-0.01640320,-0.01170613,0.04914591,-0.00756777,-0.0129763
 2,0.00374612,-0.00111375,-0.00116422,0.00134775,-0.00749209,0.01139965
 ,-0.00862745,-0.03698516,0.00934509,0.01359486,-0.00430951,0.00055020,
 -0.00167608,-0.00663185,-0.00701227,-0.01036645,0.00026202,0.00370740,
 -0.00370570,-0.00109946,-0.00404335,0.00877383,0.06493756,-0.01259502,
 -0.01903304,0.00931915,0.00150064,-0.00008112,-0.00597883,0.00823662,-
 0.00980942,0.01495750,0.00880966,-0.00454180,-0.00065166,-0.00152572,-
 0.00263312,0.00245300,-0.00503712,-0.00933009,-0.00668943,0.00249567,-
 0.00013443,-0.00037377,-0.00207856,-0.00098643,0.00079069,0.00019382,0
 .04654944,0.00394068,0.00399679,-0.00713071,0.00084730,0.00111044,-0.0
 0297018,-0.00603094,0.01269670,-0.01337654,0.00871142,0.00054547,-0.00
 579785,-0.00034171,0.00011124,-0.00277190,-0.00802444,-0.00803110,-0.0
 2138441,0.00378185,0.00275946,-0.00592308,0.00020272,0.00063763,-0.006
 09750,-0.00308688,-0.01382663,0.06545218\\0.00004848,-0.00004910,-0.00
 008776,-0.00002599,0.00005022,-0.00001632,-0.00007570,-0.00001872,-0.0
 0003801,0.00001316,-0.00000839,-0.00001086,0.00001177,0.00005618,0.000
 00921,0.00003231,-0.00000049,-0.00002529,0.00000195,-0.00002132,0.0000
 6422,0.00001007,0.00001825,0.00006326,-0.00001604,-0.00002663,0.000041
 56\\\@


 HERE WE GO......
 SLIDING DOWN THE RAZOR BLADE OF LIFE......
                                 TOM LEHRER
 Job cpu time:       0 days  4 hours 36 minutes  5.0 seconds.
 File lengths (MBytes):  RWF=    299 Int=      0 D2E=      0 Chk=     16 Scr=      1
 Normal termination of Gaussian 09 at Tue Mar  6 15:43:41 2018.
