 Entering Gaussian System, Link 0=/share/apps/mg09/g09
 Initial command:
 /share/apps//mg09/l1.exe "/state/partition1/gauss_tmp/Gau-19895.inp" -scrdir="/state/partition1/gauss_tmp/"
 Entering Link 1 = /share/apps//mg09/l1.exe PID=     19897.
  
 Copyright (c) 1988,1990,1992,1993,1995,1998,2003,2009,2013,
            Gaussian, Inc.  All Rights Reserved.
  
 This is part of the Gaussian(R) 09 program.  It is based on
 the Gaussian(R) 03 system (copyright 2003, Gaussian, Inc.),
 the Gaussian(R) 98 system (copyright 1998, Gaussian, Inc.),
 the Gaussian(R) 94 system (copyright 1995, Gaussian, Inc.),
 the Gaussian 92(TM) system (copyright 1992, Gaussian, Inc.),
 the Gaussian 90(TM) system (copyright 1990, Gaussian, Inc.),
 the Gaussian 88(TM) system (copyright 1988, Gaussian, Inc.),
 the Gaussian 86(TM) system (copyright 1986, Carnegie Mellon
 University), and the Gaussian 82(TM) system (copyright 1983,
 Carnegie Mellon University). Gaussian is a federally registered
 trademark of Gaussian, Inc.
  
 This software contains proprietary and confidential information,
 including trade secrets, belonging to Gaussian, Inc.
  
 This software is provided under written license and may be
 used, copied, transmitted, or stored only in accord with that
 written license.
  
 The following legend is applicable only to US Government
 contracts under FAR:
  
                    RESTRICTED RIGHTS LEGEND
  
 Use, reproduction and disclosure by the US Government is
 subject to restrictions as set forth in subparagraphs (a)
 and (c) of the Commercial Computer Software - Restricted
 Rights clause in FAR 52.227-19.
  
 Gaussian, Inc.
 340 Quinnipiac St., Bldg. 40, Wallingford CT 06492
  
  
 ---------------------------------------------------------------
 Warning -- This program may not be used in any manner that
 competes with the business of Gaussian, Inc. or will provide
 assistance to any competitor of Gaussian, Inc.  The licensee
 of this program is prohibited from giving any competitor of
 Gaussian, Inc. access to this program.  By using this program,
 the user acknowledges that Gaussian, Inc. is engaged in the
 business of creating and licensing software in the field of
 computational chemistry and represents and warrants to the
 licensee that it is not a competitor of Gaussian, Inc. and that
 it will not use this program in any manner prohibited above.
 ---------------------------------------------------------------
  

 Cite this work as:
 Gaussian 09, Revision D.01,
 M. J. Frisch, G. W. Trucks, H. B. Schlegel, G. E. Scuseria, 
 M. A. Robb, J. R. Cheeseman, G. Scalmani, V. Barone, B. Mennucci, 
 G. A. Petersson, H. Nakatsuji, M. Caricato, X. Li, H. P. Hratchian, 
 A. F. Izmaylov, J. Bloino, G. Zheng, J. L. Sonnenberg, M. Hada, 
 M. Ehara, K. Toyota, R. Fukuda, J. Hasegawa, M. Ishida, T. Nakajima, 
 Y. Honda, O. Kitao, H. Nakai, T. Vreven, J. A. Montgomery, Jr., 
 J. E. Peralta, F. Ogliaro, M. Bearpark, J. J. Heyd, E. Brothers, 
 K. N. Kudin, V. N. Staroverov, T. Keith, R. Kobayashi, J. Normand, 
 K. Raghavachari, A. Rendell, J. C. Burant, S. S. Iyengar, J. Tomasi, 
 M. Cossi, N. Rega, J. M. Millam, M. Klene, J. E. Knox, J. B. Cross, 
 V. Bakken, C. Adamo, J. Jaramillo, R. Gomperts, R. E. Stratmann, 
 O. Yazyev, A. J. Austin, R. Cammi, C. Pomelli, J. W. Ochterski, 
 R. L. Martin, K. Morokuma, V. G. Zakrzewski, G. A. Voth, 
 P. Salvador, J. J. Dannenberg, S. Dapprich, A. D. Daniels, 
 O. Farkas, J. B. Foresman, J. V. Ortiz, J. Cioslowski, 
 and D. J. Fox, Gaussian, Inc., Wallingford CT, 2013.
 
 ******************************************
 Gaussian 09:  ES64L-G09RevD.01 24-Apr-2013
                 6-Mar-2018 
 ******************************************
 %NProcShared=4
 Will use up to    4 processors via shared memory.
 %LindaWorkers=compute-0-6
 %chk=Isomer_51.chk
 %NProc=4
 Will use up to    4 processors via shared memory.
 %mem=4GB
 SetLPE:  input flags=" -vv -opt "Tsnet.Node.lindarsharg: ssh" "
 SetLPE:    new flags=" -vv -opt "Tsnet.Node.lindarsharg: ssh"  -nodelist 'compute-0-6.local'"
 Will use up to    1 processors via Linda.
 ----------------------------------------------------------------------
 #p PBE1PBE/Def2TZVP scf=(maxcycle=768) opt=(cartesian,maxcycle=512) fr
 eq
 ----------------------------------------------------------------------
 1/6=512,10=7,14=-1,18=10,26=3,38=1/1,3;
 2/12=2,17=6,18=5,29=2,40=1/2;
 3/5=44,7=101,11=2,16=1,25=1,30=1,71=1,74=-13/1,2,3;
 4//1;
 5/5=2,7=768,38=5/2;
 6/7=2,8=2,9=2,10=2,28=1/1;
 7/7=1,29=1/1,2,3,16;
 1/6=512,10=7,14=-1,18=10,26=3/3(2);
 2/29=1/2;
 99/12=1/99;
 2/29=1/2;
 3/5=44,7=101,11=2,16=1,25=1,30=1,71=1,74=-13/1,2,3;
 4/5=5,16=3,69=1/1;
 5/5=2,7=768,38=5/2;
 7/7=1/1,2,3,16;
 1/6=512,14=-1,18=10,26=3/3(-5);
 2/29=1/2;
 6/7=2,8=2,9=2,10=2,19=2,28=1/1;
 99/9=1,12=1/99;
 Leave Link    1 at Tue Mar  6 15:48:43 2018, MaxMem=   536870912 cpu:         0.2
 (Enter /share/apps//mg09/l101.exe)
 ---------------------
 01Final_coords.xyz_51
 ---------------------
 Symbolic Z-matrix:
 Charge =  0 Multiplicity = 1
 32                    0.89565   0.45125  -2.17555 
 32                    1.14321  -0.71207   2.33211 
 83                   -1.90096   1.12004  -0.72035 
 50                    2.49608   1.2158    0.61816 
 83                   -0.90777  -1.73543  -1.25452 
 32                   -0.21403   1.68903   1.92488 
 83                   -1.62923  -0.86141   1.60981 
 83                    1.97374  -1.59203  -0.37958 
 50                    0.42663   2.96439  -0.71419 
 
 NAtoms=      9 NQM=        9 NQMF=       0 NMMI=      0 NMMIF=      0
                NMic=       0 NMicF=      0.
                    Isotopes and Nuclear Properties:
 (Nuclear quadrupole moments (NQMom) in fm**2, nuclear magnetic moments (NMagM)
  in nuclear magnetons)

  Atom         1           2           3           4           5           6           7           8           9
 IAtWgt=          74          74         209         118         209          74         209         209         118
 AtmWgt=  73.9211788  73.9211788 208.9804000 117.9018000 208.9804000  73.9211788 208.9804000 208.9804000 117.9018000
 NucSpn=           0           0           9           0           9           0           9           9           0
 AtZEff=   0.0000000   0.0000000   0.0000000   0.0000000   0.0000000   0.0000000   0.0000000   0.0000000   0.0000000
 NQMom=    0.0000000   0.0000000 -51.6000000   0.0000000 -51.6000000   0.0000000 -51.6000000 -51.6000000   0.0000000
 NMagM=    0.0000000   0.0000000   4.1106000   0.0000000   4.1106000   0.0000000   4.1106000   4.1106000   0.0000000
 AtZNuc=  32.0000000  32.0000000  83.0000000  50.0000000  83.0000000  32.0000000  83.0000000  83.0000000  50.0000000
 Leave Link  101 at Tue Mar  6 15:48:43 2018, MaxMem=   536870912 cpu:         0.2
 (Enter /share/apps//mg09/l103.exe)

 GradGradGradGradGradGradGradGradGradGradGradGradGradGradGradGradGradGrad
 Berny optimization.
 Initialization pass.
 No Z-matrix variables, so optimization will use Cartesian coordinates.
 Trust Radius=3.00D-01 FncErr=1.00D-07 GrdErr=1.00D-06
 Number of steps in this run=    100 maximum allowed number of steps=    100.
 GradGradGradGradGradGradGradGradGradGradGradGradGradGradGradGradGradGrad

 Leave Link  103 at Tue Mar  6 15:48:44 2018, MaxMem=   536870912 cpu:         0.1
 (Enter /share/apps//mg09/l202.exe)
 ---------------------------------------------------------------------------------------------------
                            Z-MATRIX (ANGSTROMS AND DEGREES)
   CD    Cent   Atom    N1       Length/X        N2       Alpha/Y        N3        Beta/Z          J
 ---------------------------------------------------------------------------------------------------
      1      1  Ge       0   0.895651          0.451249         -2.175546
      2      2  Ge       0   1.143214         -0.712071          2.332107
      3      3  Bi       0  -1.900960          1.120043         -0.720348
      4      4  Sn       0   2.496080          1.215803          0.618158
      5      5  Bi       0  -0.907766         -1.735425         -1.254516
      6      6  Ge       0  -0.214030          1.689028          1.924883
      7      7  Bi       0  -1.629230         -0.861409          1.609805
      8      8  Bi       0   1.973738         -1.592032         -0.379577
      9      9  Sn       0   0.426629          2.964391         -0.714185
 ---------------------------------------------------------------------------------------------------
                         Z-Matrix orientation:                         
 ---------------------------------------------------------------------
 Center     Atomic      Atomic             Coordinates (Angstroms)
 Number     Number       Type             X           Y           Z
 ---------------------------------------------------------------------
      1         32           0        0.895651    0.451249   -2.175546
      2         32           0        1.143214   -0.712071    2.332107
      3         83           0       -1.900960    1.120043   -0.720348
      4         50           0        2.496080    1.215803    0.618158
      5         83           0       -0.907766   -1.735425   -1.254516
      6         32           0       -0.214030    1.689028    1.924883
      7         83           0       -1.629230   -0.861409    1.609805
      8         83           0        1.973738   -1.592032   -0.379577
      9         50           0        0.426629    2.964391   -0.714185
 ---------------------------------------------------------------------
                    Distance matrix (angstroms):
                    1          2          3          4          5
     1  Ge   0.000000
     2  Ge   4.661924   0.000000
     3  Bi   3.222719   4.684135   0.000000
     4  Sn   3.309184   2.912828   4.597252   0.000000
     5  Bi   2.980294   4.256482   3.070092   4.878814   0.000000
     6  Ge   4.424591   2.788049   3.188530   3.045680   4.724058
     7  Bi   4.735713   2.868879   3.070766   4.724019   3.080381
     8  Bi   2.926222   2.969399   4.741810   3.025269   3.014821
     9  Sn   2.944731   4.828018   2.969735   3.019160   4.915368
                    6          7          8          9
     6  Ge   0.000000
     7  Bi   2.933734   0.000000
     8  Bi   4.567518   4.180051   0.000000
     9  Sn   3.000279   4.925874   4.823536   0.000000
 Stoichiometry    Bi4Ge3Sn2
 Framework group  C1[X(Bi4Ge3Sn2)]
 Deg. of freedom    21
 Full point group                 C1      NOp   1
 Largest Abelian subgroup         C1      NOp   1
 Largest concise Abelian subgroup C1      NOp   1
                         Standard orientation:                         
 ---------------------------------------------------------------------
 Center     Atomic      Atomic             Coordinates (Angstroms)
 Number     Number       Type             X           Y           Z
 ---------------------------------------------------------------------
      1         32           0        0.895651    0.451248   -2.175546
      2         32           0        1.143213   -0.712072    2.332107
      3         83           0       -1.900959    1.120045   -0.720348
      4         50           0        2.496081    1.215800    0.618158
      5         83           0       -0.907768   -1.735424   -1.254516
      6         32           0       -0.214028    1.689028    1.924883
      7         83           0       -1.629231   -0.861407    1.609805
      8         83           0        1.973736   -1.592034   -0.379577
      9         50           0        0.426633    2.964391   -0.714185
 ---------------------------------------------------------------------
 Rotational constants (GHZ):      0.0975103      0.0943585      0.0807392
 Leave Link  202 at Tue Mar  6 15:48:44 2018, MaxMem=   536870912 cpu:         0.1
 (Enter /share/apps//mg09/l301.exe)
 Standard basis: def2TZVP (5D, 7F)
 Ernie: Thresh=  0.10000D-02 Tol=  0.10000D-05 Strict=F.
 There are   519 symmetry adapted cartesian basis functions of A   symmetry.
 There are   444 symmetry adapted basis functions of A   symmetry.
   444 basis functions,   963 primitive gaussians,   519 cartesian basis functions
   116 alpha electrons      116 beta electrons
       nuclear repulsion energy      3544.4986336604 Hartrees.
 IExCor= 1009 DFT=T Ex+Corr=PBE1PBE ExCW=0 ScaHFX=  0.250000
 ScaDFX=  0.750000  0.750000  1.000000  1.000000 ScalE2=  1.000000  1.000000
 IRadAn=      0 IRanWt=     -1 IRanGd=            0 ICorTp=0 IEmpDi=  4
 NAtoms=    9 NActive=    9 NUniq=    9 SFac= 1.00D+00 NAtFMM=   60 NAOKFM=F Big=F
 Integral buffers will be    131072 words long.
 Raffenetti 2 integral format.
 Two-electron integral symmetry is turned on.
 Leave Link  301 at Tue Mar  6 15:48:44 2018, MaxMem=   536870912 cpu:         0.2
 (Enter /share/apps//mg09/l302.exe)
 NPDir=0 NMtPBC=     1 NCelOv=     1 NCel=       1 NClECP=     1 NCelD=      1
         NCelK=      1 NCelE2=     1 NClLst=     1 CellRange=     0.0.
 One-electron integrals computed using PRISM.
   1 Symmetry operations used in ECPInt.
 ECPInt:  NShTT=   10440 NPrTT=   41973 LenC2=    9654 LenP2D=   27457.
 LDataN:  DoStor=T MaxTD1= 8 Len=  415
 NBasis=   444 RedAO= T EigKep=  1.21D-03  NBF=   444
 NBsUse=   444 1.00D-06 EigRej= -1.00D+00 NBFU=   444
 Precomputing XC quadrature grid using
 IXCGrd= 4 IRadAn=           0 IRanWt=          -1 IRanGd=           0 AccXCQ= 0.00D+00.
 Defaulting to unpruned grid for atomic number  83.
 Defaulting to unpruned grid for atomic number  50.
 Defaulting to unpruned grid for atomic number  83.
 Generated NRdTot=       0 NPtTot=           0 NUsed=           0 NTot=          32
 NSgBfM=   505   505   505   505   505 MxSgAt=     9 MxSgA2=     9.
 Leave Link  302 at Tue Mar  6 15:48:54 2018, MaxMem=   536870912 cpu:        35.5
 (Enter /share/apps//mg09/l303.exe)
 DipDrv:  MaxL=1.
 Leave Link  303 at Tue Mar  6 15:48:54 2018, MaxMem=   536870912 cpu:         0.5
 (Enter /share/apps//mg09/l401.exe)
 ExpMin= 4.62D-02 ExpMax= 4.66D+05 ExpMxC= 4.50D+03 IAcc=2 IRadAn=         4 AccDes= 0.00D+00
 Harris functional with IExCor= 1009 and IRadAn=       4 diagonalized for initial guess.
 HarFok:  IExCor= 1009 AccDes= 0.00D+00 IRadAn=         4 IDoV= 1 UseB2=F ITyADJ=14
 ICtDFT=  3500011 ScaDFX=  1.000000  1.000000  1.000000  1.000000
 Defaulting to unpruned grid for atomic number  83.
 Defaulting to unpruned grid for atomic number  83.
 Defaulting to unpruned grid for atomic number  83.
 Defaulting to unpruned grid for atomic number  83.
 FoFCou: FMM=F IPFlag=           0 FMFlag=      100000 FMFlg1=           0
         NFxFlg=           0 DoJE=T BraDBF=F KetDBF=T FulRan=T
         wScrn=  0.000000 ICntrl=     500 IOpCl=  0 I1Cent=   200000004 NGrid=           0
         NMat0=    1 NMatS0=      1 NMatT0=    0 NMatD0=    1 NMtDS0=    0 NMtDT0=    0
 Petite list used in FoFCou.
 Harris En= -7518.61038790070    
 JPrj=0 DoOrth=F DoCkMO=F.
 Leave Link  401 at Tue Mar  6 15:48:57 2018, MaxMem=   536870912 cpu:        12.3
 (Enter /share/apps//mg09/l502.exe)
 Closed shell SCF:
 Using DIIS extrapolation, IDIIS=  1040.
 Integral symmetry usage will be decided dynamically.
 IVT=     1410107 IEndB=     1410107 NGot=   536870912 MDV=   536322046
 LenX=   536322046 LenY=   536052166
 Requested convergence on RMS density matrix=1.00D-08 within 768 cycles.
 Requested convergence on MAX density matrix=1.00D-06.
 Requested convergence on             energy=1.00D-06.
 No special actions if energy rises.
 Fock matrices will be formed incrementally for  20 cycles.

 Cycle   1  Pass 1  IDiag  1:
 FoFJK:  IHMeth= 1 ICntrl=       0 DoSepK=F KAlg= 0 I1Cent=   0 FoldK=F
 IRaf= 880000000 NMat=   1 IRICut=       1 DoRegI=T DoRafI=F ISym2E= 0.
 FoFCou: FMM=F IPFlag=           0 FMFlag=      100000 FMFlg1=           0
         NFxFlg=           0 DoJE=F BraDBF=F KetDBF=F FulRan=T
         wScrn=  0.000000 ICntrl=       0 IOpCl=  0 I1Cent=           0 NGrid=           0
         NMat0=    1 NMatS0=      1 NMatT0=    0 NMatD0=    1 NMtDS0=    0 NMtDT0=    0
 Symmetry not used in FoFCou.
 Defaulting to unpruned grid for atomic number  83.
 Defaulting to unpruned grid for atomic number  83.
 Defaulting to unpruned grid for atomic number  83.
 Defaulting to unpruned grid for atomic number  83.
 E= -7517.16681752641    
 DIIS: error= 3.03D-02 at cycle   1 NSaved=   1.
 NSaved= 1 IEnMin= 1 EnMin= -7517.16681752641     IErMin= 1 ErrMin= 3.03D-02
 ErrMax= 3.03D-02  0.00D+00 EMaxC= 1.00D-01 BMatC= 1.52D+00 BMatP= 1.52D+00
 IDIUse=3 WtCom= 6.97D-01 WtEn= 3.03D-01
 Coeff-Com:  0.100D+01
 Coeff-En:   0.100D+01
 Coeff:      0.100D+01
 Gap=     0.143 Goal=   None    Shift=    0.000
 GapD=    0.143 DampG=1.000 DampE=0.500 DampFc=0.5000 IDamp=-1.
 Damping current iteration by 5.00D-01
 RMSDP=6.68D-03 MaxDP=3.22D-01              OVMax= 8.53D-01

 Cycle   2  Pass 1  IDiag  1:
 RMSU=  3.34D-03    CP:  1.00D+00
 E= -7516.52729303796     Delta-E=        0.639524488455 Rises=F Damp=T
 DIIS: error= 1.58D-02 at cycle   2 NSaved=   2.
 NSaved= 2 IEnMin= 1 EnMin= -7517.16681752641     IErMin= 2 ErrMin= 1.58D-02
 ErrMax= 1.58D-02  0.00D+00 EMaxC= 1.00D-01 BMatC= 4.92D-01 BMatP= 1.52D+00
 IDIUse=3 WtCom= 8.42D-01 WtEn= 1.58D-01
 Coeff-Com:  0.262D+00 0.738D+00
 Coeff-En:   0.702D+00 0.298D+00
 Coeff:      0.331D+00 0.669D+00
 Gap=     0.007 Goal=   None    Shift=    0.000
 RMSDP=4.70D-03 MaxDP=2.35D-01 DE= 6.40D-01 OVMax= 8.09D-01

 Cycle   3  Pass 1  IDiag  1:
 RMSU=  3.53D-03    CP:  1.01D+00  7.19D-02
 E= -7514.87384404679     Delta-E=        1.653448991168 Rises=F Damp=F
 DIIS: error= 5.04D-02 at cycle   3 NSaved=   3.
 NSaved= 3 IEnMin= 1 EnMin= -7517.16681752641     IErMin= 2 ErrMin= 1.58D-02
 ErrMax= 5.04D-02  0.00D+00 EMaxC= 1.00D-01 BMatC= 2.11D+00 BMatP= 4.92D-01
 IDIUse=2 WtCom= 0.00D+00 WtEn= 1.00D+00
 Rare condition: small coef for last iteration:  0.000D+00
 Coeff-En:   0.536D+00 0.305D+00 0.158D+00
 Coeff:      0.536D+00 0.305D+00 0.158D+00
 Gap=     0.202 Goal=   None    Shift=    0.000
 RMSDP=5.35D-03 MaxDP=2.43D-01 DE= 1.65D+00 OVMax= 5.86D-01

 Cycle   4  Pass 1  IDiag  1:
 RMSU=  1.86D-03    CP:  1.01D+00  1.11D+00 -2.31D-02
 E= -7516.69810481105     Delta-E=       -1.824260764262 Rises=F Damp=F
 DIIS: error= 2.26D-02 at cycle   4 NSaved=   4.
 NSaved= 4 IEnMin= 1 EnMin= -7517.16681752641     IErMin= 2 ErrMin= 1.58D-02
 ErrMax= 2.26D-02  0.00D+00 EMaxC= 1.00D-01 BMatC= 9.51D-01 BMatP= 4.92D-01
 IDIUse=2 WtCom= 0.00D+00 WtEn= 1.00D+00
 EnCoef did     8 forward-backward iterations
 Coeff-En:   0.519D+00 0.000D+00 0.617D-01 0.419D+00
 Coeff:      0.519D+00 0.000D+00 0.617D-01 0.419D+00
 Gap=     0.124 Goal=   None    Shift=    0.000
 RMSDP=3.04D-03 MaxDP=1.26D-01 DE=-1.82D+00 OVMax= 3.57D-01

 Cycle   5  Pass 1  IDiag  1:
 RMSU=  1.20D-03    CP:  1.00D+00  4.22D-01  3.59D-01  5.76D-01
 E= -7517.61417433280     Delta-E=       -0.916069521752 Rises=F Damp=F
 DIIS: error= 9.83D-03 at cycle   5 NSaved=   5.
 NSaved= 5 IEnMin= 5 EnMin= -7517.61417433280     IErMin= 5 ErrMin= 9.83D-03
 ErrMax= 9.83D-03  0.00D+00 EMaxC= 1.00D-01 BMatC= 1.98D-01 BMatP= 4.92D-01
 IDIUse=3 WtCom= 9.02D-01 WtEn= 9.83D-02
 EnCoef did     4 forward-backward iterations
 Coeff-Com:  0.376D+00-0.448D+00-0.140D+00 0.517D+00 0.696D+00
 Coeff-En:   0.118D-01 0.000D+00 0.000D+00 0.191D+00 0.798D+00
 Coeff:      0.340D+00-0.404D+00-0.126D+00 0.485D+00 0.706D+00
 Gap=     0.132 Goal=   None    Shift=    0.000
 RMSDP=1.48D-03 MaxDP=6.23D-02 DE=-9.16D-01 OVMax= 1.75D-01

 Cycle   6  Pass 1  IDiag  1:
 RMSU=  5.82D-04    CP:  1.00D+00  4.94D-01  4.36D-02  7.01D-01  4.17D-01
 E= -7517.75793140242     Delta-E=       -0.143757069622 Rises=F Damp=F
 DIIS: error= 4.69D-03 at cycle   6 NSaved=   6.
 NSaved= 6 IEnMin= 6 EnMin= -7517.75793140242     IErMin= 6 ErrMin= 4.69D-03
 ErrMax= 4.69D-03  0.00D+00 EMaxC= 1.00D-01 BMatC= 3.88D-02 BMatP= 1.98D-01
 IDIUse=3 WtCom= 9.53D-01 WtEn= 4.69D-02
 Coeff-Com:  0.687D-01-0.334D-01-0.499D-01 0.286D-01 0.407D+00 0.579D+00
 Coeff-En:   0.000D+00 0.000D+00 0.000D+00 0.000D+00 0.267D+00 0.733D+00
 Coeff:      0.655D-01-0.318D-01-0.475D-01 0.272D-01 0.401D+00 0.586D+00
 Gap=     0.126 Goal=   None    Shift=    0.000
 RMSDP=7.23D-04 MaxDP=3.72D-02 DE=-1.44D-01 OVMax= 9.10D-02

 Cycle   7  Pass 1  IDiag  1:
 RMSU=  3.37D-04    CP:  1.00D+00  4.33D-01  1.25D-01  6.31D-01  6.93D-01
                    CP:  3.22D-01
 E= -7517.79556520987     Delta-E=       -0.037633807449 Rises=F Damp=F
 DIIS: error= 2.21D-03 at cycle   7 NSaved=   7.
 NSaved= 7 IEnMin= 7 EnMin= -7517.79556520987     IErMin= 7 ErrMin= 2.21D-03
 ErrMax= 2.21D-03  0.00D+00 EMaxC= 1.00D-01 BMatC= 8.40D-03 BMatP= 3.88D-02
 IDIUse=3 WtCom= 9.78D-01 WtEn= 2.21D-02
 Coeff-Com:  0.531D-02 0.195D-01-0.116D-01-0.242D-01 0.187D+00 0.432D+00
 Coeff-Com:  0.392D+00
 Coeff-En:   0.000D+00 0.000D+00 0.000D+00 0.000D+00 0.000D+00 0.221D+00
 Coeff-En:   0.779D+00
 Coeff:      0.519D-02 0.191D-01-0.113D-01-0.237D-01 0.182D+00 0.428D+00
 Coeff:      0.401D+00
 Gap=     0.124 Goal=   None    Shift=    0.000
 RMSDP=3.17D-04 MaxDP=1.36D-02 DE=-3.76D-02 OVMax= 3.95D-02

 Cycle   8  Pass 1  IDiag  1:
 RMSU=  1.60D-04    CP:  1.00D+00  4.35D-01  1.28D-01  6.32D-01  6.56D-01
                    CP:  5.99D-01  3.64D-01
 E= -7517.80355152481     Delta-E=       -0.007986314935 Rises=F Damp=F
 DIIS: error= 1.65D-03 at cycle   8 NSaved=   8.
 NSaved= 8 IEnMin= 8 EnMin= -7517.80355152481     IErMin= 8 ErrMin= 1.65D-03
 ErrMax= 1.65D-03  0.00D+00 EMaxC= 1.00D-01 BMatC= 2.17D-03 BMatP= 8.40D-03
 IDIUse=3 WtCom= 9.84D-01 WtEn= 1.65D-02
 Coeff-Com: -0.635D-02 0.195D-01-0.292D-02-0.203D-01 0.834D-01 0.259D+00
 Coeff-Com:  0.333D+00 0.335D+00
 Coeff-En:   0.000D+00 0.000D+00 0.000D+00 0.000D+00 0.000D+00 0.000D+00
 Coeff-En:   0.235D+00 0.765D+00
 Coeff:     -0.625D-02 0.192D-01-0.287D-02-0.200D-01 0.820D-01 0.255D+00
 Coeff:      0.331D+00 0.342D+00
 Gap=     0.121 Goal=   None    Shift=    0.000
 RMSDP=1.29D-04 MaxDP=4.96D-03 DE=-7.99D-03 OVMax= 1.48D-02

 Cycle   9  Pass 1  IDiag  1:
 RMSU=  4.60D-05    CP:  1.00D+00  4.40D-01  1.23D-01  6.35D-01  6.57D-01
                    CP:  5.83D-01  4.80D-01  3.13D-01
 E= -7517.80621769199     Delta-E=       -0.002666167182 Rises=F Damp=F
 DIIS: error= 2.51D-04 at cycle   9 NSaved=   9.
 NSaved= 9 IEnMin= 9 EnMin= -7517.80621769199     IErMin= 9 ErrMin= 2.51D-04
 ErrMax= 2.51D-04  0.00D+00 EMaxC= 1.00D-01 BMatC= 1.20D-04 BMatP= 2.17D-03
 IDIUse=3 WtCom= 9.97D-01 WtEn= 2.51D-03
 Coeff-Com: -0.440D-02 0.728D-02-0.761D-03-0.527D-02 0.193D-01 0.898D-01
 Coeff-Com:  0.144D+00 0.208D+00 0.542D+00
 Coeff-En:   0.000D+00 0.000D+00 0.000D+00 0.000D+00 0.000D+00 0.000D+00
 Coeff-En:   0.000D+00 0.000D+00 0.100D+01
 Coeff:     -0.439D-02 0.727D-02-0.759D-03-0.525D-02 0.192D-01 0.895D-01
 Coeff:      0.143D+00 0.208D+00 0.543D+00
 Gap=     0.121 Goal=   None    Shift=    0.000
 RMSDP=3.31D-05 MaxDP=2.64D-03 DE=-2.67D-03 OVMax= 4.01D-03

 Cycle  10  Pass 1  IDiag  1:
 RMSU=  1.94D-05    CP:  1.00D+00  4.43D-01  1.20D-01  6.39D-01  6.56D-01
                    CP:  5.81D-01  4.97D-01  4.00D-01  6.83D-01
 E= -7517.80634677925     Delta-E=       -0.000129087261 Rises=F Damp=F
 DIIS: error= 8.94D-05 at cycle  10 NSaved=  10.
 NSaved=10 IEnMin=10 EnMin= -7517.80634677925     IErMin=10 ErrMin= 8.94D-05
 ErrMax= 8.94D-05  0.00D+00 EMaxC= 1.00D-01 BMatC= 1.58D-05 BMatP= 1.20D-04
 IDIUse=1 WtCom= 1.00D+00 WtEn= 0.00D+00
 Coeff-Com: -0.229D-02 0.325D-02-0.273D-03-0.152D-02 0.396D-02 0.330D-01
 Coeff-Com:  0.585D-01 0.980D-01 0.335D+00 0.473D+00
 Coeff:     -0.229D-02 0.325D-02-0.273D-03-0.152D-02 0.396D-02 0.330D-01
 Coeff:      0.585D-01 0.980D-01 0.335D+00 0.473D+00
 Gap=     0.121 Goal=   None    Shift=    0.000
 RMSDP=1.80D-05 MaxDP=7.30D-04 DE=-1.29D-04 OVMax= 2.17D-03

 Cycle  11  Pass 1  IDiag  1:
 RMSU=  1.14D-05    CP:  1.00D+00  4.43D-01  1.20D-01  6.40D-01  6.56D-01
                    CP:  5.84D-01  5.01D-01  4.09D-01  7.71D-01  3.33D-01
 E= -7517.80635179355     Delta-E=       -0.000005014299 Rises=F Damp=F
 DIIS: error= 9.97D-05 at cycle  11 NSaved=  11.
 NSaved=11 IEnMin=11 EnMin= -7517.80635179355     IErMin=10 ErrMin= 8.94D-05
 ErrMax= 9.97D-05  0.00D+00 EMaxC= 1.00D-01 BMatC= 1.13D-05 BMatP= 1.58D-05
 IDIUse=1 WtCom= 1.00D+00 WtEn= 0.00D+00
 Coeff-Com: -0.114D-02 0.157D-02-0.111D-03-0.354D-03-0.196D-02 0.589D-02
 Coeff-Com:  0.144D-01 0.342D-01 0.159D+00 0.424D+00 0.364D+00
 Coeff:     -0.114D-02 0.157D-02-0.111D-03-0.354D-03-0.196D-02 0.589D-02
 Coeff:      0.144D-01 0.342D-01 0.159D+00 0.424D+00 0.364D+00
 Gap=     0.121 Goal=   None    Shift=    0.000
 RMSDP=8.85D-06 MaxDP=3.37D-04 DE=-5.01D-06 OVMax= 1.02D-03

 Cycle  12  Pass 1  IDiag  1:
 RMSU=  2.82D-06    CP:  1.00D+00  4.43D-01  1.20D-01  6.40D-01  6.57D-01
                    CP:  5.84D-01  5.02D-01  4.13D-01  7.61D-01  6.39D-01
                    CP:  5.13D-01
 E= -7517.80636584968     Delta-E=       -0.000014056128 Rises=F Damp=F
 DIIS: error= 2.18D-05 at cycle  12 NSaved=  12.
 NSaved=12 IEnMin=12 EnMin= -7517.80636584968     IErMin=12 ErrMin= 2.18D-05
 ErrMax= 2.18D-05  0.00D+00 EMaxC= 1.00D-01 BMatC= 6.71D-07 BMatP= 1.13D-05
 IDIUse=1 WtCom= 1.00D+00 WtEn= 0.00D+00
 Coeff-Com: -0.322D-03 0.535D-03 0.497D-05-0.829D-04-0.181D-02-0.116D-02
 Coeff-Com: -0.274D-02-0.260D-02 0.147D-01 0.131D+00 0.159D+00 0.703D+00
 Coeff:     -0.322D-03 0.535D-03 0.497D-05-0.829D-04-0.181D-02-0.116D-02
 Coeff:     -0.274D-02-0.260D-02 0.147D-01 0.131D+00 0.159D+00 0.703D+00
 Gap=     0.121 Goal=   None    Shift=    0.000
 RMSDP=2.13D-06 MaxDP=1.19D-04 DE=-1.41D-05 OVMax= 2.32D-04

 Cycle  13  Pass 1  IDiag  1:
 RMSU=  1.10D-06    CP:  1.00D+00  4.43D-01  1.20D-01  6.40D-01  6.57D-01
                    CP:  5.86D-01  5.03D-01  4.14D-01  7.69D-01  6.61D-01
                    CP:  5.75D-01  8.79D-01
 E= -7517.80636667590     Delta-E=       -0.000000826220 Rises=F Damp=F
 DIIS: error= 8.55D-06 at cycle  13 NSaved=  13.
 NSaved=13 IEnMin=13 EnMin= -7517.80636667590     IErMin=13 ErrMin= 8.55D-06
 ErrMax= 8.55D-06  0.00D+00 EMaxC= 1.00D-01 BMatC= 9.27D-08 BMatP= 6.71D-07
 IDIUse=1 WtCom= 1.00D+00 WtEn= 0.00D+00
 Coeff-Com: -0.812D-04 0.173D-03 0.632D-05-0.576D-04-0.580D-03-0.457D-03
 Coeff-Com: -0.200D-02-0.588D-02-0.111D-01 0.550D-02 0.213D-01 0.318D+00
 Coeff-Com:  0.675D+00
 Coeff:     -0.812D-04 0.173D-03 0.632D-05-0.576D-04-0.580D-03-0.457D-03
 Coeff:     -0.200D-02-0.588D-02-0.111D-01 0.550D-02 0.213D-01 0.318D+00
 Coeff:      0.675D+00
 Gap=     0.121 Goal=   None    Shift=    0.000
 RMSDP=9.11D-07 MaxDP=4.21D-05 DE=-8.26D-07 OVMax= 9.92D-05

 Cycle  14  Pass 1  IDiag  1:
 RMSU=  4.66D-07    CP:  1.00D+00  4.43D-01  1.19D-01  6.40D-01  6.57D-01
                    CP:  5.86D-01  5.03D-01  4.13D-01  7.75D-01  6.68D-01
                    CP:  5.87D-01  9.72D-01  7.58D-01
 E= -7517.80636679449     Delta-E=       -0.000000118591 Rises=F Damp=F
 DIIS: error= 2.28D-06 at cycle  14 NSaved=  14.
 NSaved=14 IEnMin=14 EnMin= -7517.80636679449     IErMin=14 ErrMin= 2.28D-06
 ErrMax= 2.28D-06  0.00D+00 EMaxC= 1.00D-01 BMatC= 1.02D-08 BMatP= 9.27D-08
 IDIUse=1 WtCom= 1.00D+00 WtEn= 0.00D+00
 Coeff-Com: -0.177D-04 0.343D-04 0.514D-05-0.123D-04-0.160D-03-0.777D-04
 Coeff-Com: -0.887D-03-0.337D-02-0.894D-02-0.117D-01-0.681D-02 0.105D+00
 Coeff-Com:  0.402D+00 0.525D+00
 Coeff:     -0.177D-04 0.343D-04 0.514D-05-0.123D-04-0.160D-03-0.777D-04
 Coeff:     -0.887D-03-0.337D-02-0.894D-02-0.117D-01-0.681D-02 0.105D+00
 Coeff:      0.402D+00 0.525D+00
 Gap=     0.121 Goal=   None    Shift=    0.000
 RMSDP=3.35D-07 MaxDP=1.83D-05 DE=-1.19D-07 OVMax= 3.67D-05

 Cycle  15  Pass 1  IDiag  1:
 RMSU=  1.40D-07    CP:  1.00D+00  4.44D-01  1.19D-01  6.40D-01  6.57D-01
                    CP:  5.86D-01  5.04D-01  4.13D-01  7.74D-01  6.72D-01
                    CP:  5.92D-01  9.90D-01  8.61D-01  6.27D-01
 E= -7517.80636680823     Delta-E=       -0.000000013742 Rises=F Damp=F
 DIIS: error= 3.81D-07 at cycle  15 NSaved=  15.
 NSaved=15 IEnMin=15 EnMin= -7517.80636680823     IErMin=15 ErrMin= 3.81D-07
 ErrMax= 3.81D-07  0.00D+00 EMaxC= 1.00D-01 BMatC= 3.93D-10 BMatP= 1.02D-08
 IDIUse=1 WtCom= 1.00D+00 WtEn= 0.00D+00
 Coeff-Com:  0.221D-06-0.118D-05 0.924D-06-0.470D-05 0.838D-05 0.484D-04
 Coeff-Com: -0.152D-03-0.787D-03-0.309D-02-0.638D-02-0.627D-02 0.751D-02
 Coeff-Com:  0.103D+00 0.237D+00 0.670D+00
 Coeff:      0.221D-06-0.118D-05 0.924D-06-0.470D-05 0.838D-05 0.484D-04
 Coeff:     -0.152D-03-0.787D-03-0.309D-02-0.638D-02-0.627D-02 0.751D-02
 Coeff:      0.103D+00 0.237D+00 0.670D+00
 Gap=     0.121 Goal=   None    Shift=    0.000
 RMSDP=7.60D-08 MaxDP=2.90D-06 DE=-1.37D-08 OVMax= 1.11D-05

 Cycle  16  Pass 1  IDiag  1:
 RMSU=  4.00D-08    CP:  1.00D+00  4.44D-01  1.19D-01  6.40D-01  6.57D-01
                    CP:  5.86D-01  5.04D-01  4.13D-01  7.74D-01  6.72D-01
                    CP:  5.93D-01  9.98D-01  8.73D-01  7.06D-01  8.63D-01
 E= -7517.80636680835     Delta-E=       -0.000000000116 Rises=F Damp=F
 DIIS: error= 9.29D-08 at cycle  16 NSaved=  16.
 NSaved=16 IEnMin=16 EnMin= -7517.80636680835     IErMin=16 ErrMin= 9.29D-08
 ErrMax= 9.29D-08  0.00D+00 EMaxC= 1.00D-01 BMatC= 2.43D-11 BMatP= 3.93D-10
 IDIUse=1 WtCom= 1.00D+00 WtEn= 0.00D+00
 Coeff-Com:  0.932D-06-0.136D-05 0.161D-06-0.254D-05 0.138D-04 0.220D-04
 Coeff-Com: -0.840D-05-0.109D-03-0.707D-03-0.189D-02-0.218D-02-0.361D-02
 Coeff-Com:  0.182D-01 0.681D-01 0.270D+00 0.652D+00
 Coeff:      0.932D-06-0.136D-05 0.161D-06-0.254D-05 0.138D-04 0.220D-04
 Coeff:     -0.840D-05-0.109D-03-0.707D-03-0.189D-02-0.218D-02-0.361D-02
 Coeff:      0.182D-01 0.681D-01 0.270D+00 0.652D+00
 Gap=     0.121 Goal=   None    Shift=    0.000
 RMSDP=2.25D-08 MaxDP=1.12D-06 DE=-1.16D-10 OVMax= 4.29D-06

 Cycle  17  Pass 1  IDiag  1:
 RMSU=  1.58D-08    CP:  1.00D+00  4.44D-01  1.19D-01  6.40D-01  6.57D-01
                    CP:  5.86D-01  5.04D-01  4.13D-01  7.75D-01  6.73D-01
                    CP:  5.94D-01  9.99D-01  8.79D-01  7.12D-01  9.31D-01
                    CP:  8.39D-01
 E= -7517.80636680877     Delta-E=       -0.000000000426 Rises=F Damp=F
 DIIS: error= 5.14D-08 at cycle  17 NSaved=  17.
 NSaved=17 IEnMin=17 EnMin= -7517.80636680877     IErMin=17 ErrMin= 5.14D-08
 ErrMax= 5.14D-08  0.00D+00 EMaxC= 1.00D-01 BMatC= 6.42D-12 BMatP= 2.43D-11
 IDIUse=1 WtCom= 1.00D+00 WtEn= 0.00D+00
 Coeff-Com:  0.597D-06-0.102D-05 0.341D-07-0.681D-06 0.667D-05 0.462D-05
 Coeff-Com:  0.120D-04 0.422D-04-0.112D-04-0.283D-03-0.432D-03-0.326D-02
 Coeff-Com: -0.306D-02 0.107D-01 0.753D-01 0.378D+00 0.543D+00
 Coeff:      0.597D-06-0.102D-05 0.341D-07-0.681D-06 0.667D-05 0.462D-05
 Coeff:      0.120D-04 0.422D-04-0.112D-04-0.283D-03-0.432D-03-0.326D-02
 Coeff:     -0.306D-02 0.107D-01 0.753D-01 0.378D+00 0.543D+00
 Gap=     0.121 Goal=   None    Shift=    0.000
 RMSDP=9.86D-09 MaxDP=6.37D-07 DE=-4.26D-10 OVMax= 1.45D-06

 SCF Done:  E(RPBE1PBE) =  -7517.80636681     A.U. after   17 cycles
            NFock= 17  Conv=0.99D-08     -V/T= 2.1285
 KE= 6.661926541297D+03 PE=-2.468030762233D+04 EE= 6.956076080562D+03
 Leave Link  502 at Tue Mar  6 16:06:02 2018, MaxMem=   536870912 cpu:      3797.7
 (Enter /share/apps//mg09/l601.exe)
 Copying SCF densities to generalized density rwf, IOpCl= 0 IROHF=0.

 **********************************************************************

            Population analysis using the SCF density.

 **********************************************************************

 Orbital symmetries:
       Occupied  (A) (A) (A) (A) (A) (A) (A) (A) (A) (A) (A) (A)
                 (A) (A) (A) (A) (A) (A) (A) (A) (A) (A) (A) (A)
                 (A) (A) (A) (A) (A) (A) (A) (A) (A) (A) (A) (A)
                 (A) (A) (A) (A) (A) (A) (A) (A) (A) (A) (A) (A)
                 (A) (A) (A) (A) (A) (A) (A) (A) (A) (A) (A) (A)
                 (A) (A) (A) (A) (A) (A) (A) (A) (A) (A) (A) (A)
                 (A) (A) (A) (A) (A) (A) (A) (A) (A) (A) (A) (A)
                 (A) (A) (A) (A) (A) (A) (A) (A) (A) (A) (A) (A)
                 (A) (A) (A) (A) (A) (A) (A) (A) (A) (A) (A) (A)
                 (A) (A) (A) (A) (A) (A) (A) (A)
       Virtual   (A) (A) (A) (A) (A) (A) (A) (A) (A) (A) (A) (A)
                 (A) (A) (A) (A) (A) (A) (A) (A) (A) (A) (A) (A)
                 (A) (A) (A) (A) (A) (A) (A) (A) (A) (A) (A) (A)
                 (A) (A) (A) (A) (A) (A) (A) (A) (A) (A) (A) (A)
                 (A) (A) (A) (A) (A) (A) (A) (A) (A) (A) (A) (A)
                 (A) (A) (A) (A) (A) (A) (A) (A) (A) (A) (A) (A)
                 (A) (A) (A) (A) (A) (A) (A) (A) (A) (A) (A) (A)
                 (A) (A) (A) (A) (A) (A) (A) (A) (A) (A) (A) (A)
                 (A) (A) (A) (A) (A) (A) (A) (A) (A) (A) (A) (A)
                 (A) (A) (A) (A) (A) (A) (A) (A) (A) (A) (A) (A)
                 (A) (A) (A) (A) (A) (A) (A) (A) (A) (A) (A) (A)
                 (A) (A) (A) (A) (A) (A) (A) (A) (A) (A) (A) (A)
                 (A) (A) (A) (A) (A) (A) (A) (A) (A) (A) (A) (A)
                 (A) (A) (A) (A) (A) (A) (A) (A) (A) (A) (A) (A)
                 (A) (A) (A) (A) (A) (A) (A) (A) (A) (A) (A) (A)
                 (A) (A) (A) (A) (A) (A) (A) (A) (A) (A) (A) (A)
                 (A) (A) (A) (A) (A) (A) (A) (A) (A) (A) (A) (A)
                 (A) (A) (A) (A) (A) (A) (A) (A) (A) (A) (A) (A)
                 (A) (A) (A) (A) (A) (A) (A) (A) (A) (A) (A) (A)
                 (A) (A) (A) (A) (A) (A) (A) (A) (A) (A) (A) (A)
                 (A) (A) (A) (A) (A) (A) (A) (A) (A) (A) (A) (A)
                 (A) (A) (A) (A) (A) (A) (A) (A) (A) (A) (A) (A)
                 (A) (A) (A) (A) (A) (A) (A) (A) (A) (A) (A) (A)
                 (A) (A) (A) (A) (A) (A) (A) (A) (A) (A) (A) (A)
                 (A) (A) (A) (A) (A) (A) (A) (A) (A) (A) (A) (A)
                 (A) (A) (A) (A) (A) (A) (A) (A) (A) (A) (A) (A)
                 (A) (A) (A) (A) (A) (A) (A) (A) (A) (A) (A) (A)
                 (A) (A) (A) (A)
 The electronic state is 1-A.
 Alpha  occ. eigenvalues -- -399.10371-399.09603-399.08622 -49.91909 -49.91155
 Alpha  occ. eigenvalues --  -49.90213 -44.40019 -44.39960 -44.39921 -44.39270
 Alpha  occ. eigenvalues --  -44.39194 -44.39173 -44.38295 -44.38260 -44.38246
 Alpha  occ. eigenvalues --   -6.28394  -6.27648  -6.26720  -6.02824  -6.02537
 Alpha  occ. eigenvalues --   -6.01805  -6.01068  -5.13061  -5.13030  -4.43914
 Alpha  occ. eigenvalues --   -4.43726  -4.43590  -4.43191  -4.42951  -4.42861
 Alpha  occ. eigenvalues --   -4.42178  -4.42047  -4.42005  -3.75102  -3.75023
 Alpha  occ. eigenvalues --   -3.74802  -3.74767  -3.74687  -3.74536  -3.74130
 Alpha  occ. eigenvalues --   -3.74004  -3.73698  -3.73417  -3.73158  -3.73036
 Alpha  occ. eigenvalues --   -3.46294  -3.46275  -3.46243  -3.46146  -3.46014
 Alpha  occ. eigenvalues --   -3.46002  -1.23347  -1.23305  -1.23182  -1.23034
 Alpha  occ. eigenvalues --   -1.23024  -1.22616  -1.22566  -1.22468  -1.22303
 Alpha  occ. eigenvalues --   -1.22274  -1.21606  -1.21593  -1.21546  -1.21432
 Alpha  occ. eigenvalues --   -1.21413  -1.09172  -1.09008  -1.08705  -1.08634
 Alpha  occ. eigenvalues --   -1.08526  -1.08462  -1.08383  -1.08255  -1.08177
 Alpha  occ. eigenvalues --   -1.08077  -1.07695  -1.07600  -1.07394  -1.07344
 Alpha  occ. eigenvalues --   -1.07282  -1.07018  -1.06915  -1.06783  -1.06636
 Alpha  occ. eigenvalues --   -1.06586  -1.02715  -1.02543  -1.02539  -1.02453
 Alpha  occ. eigenvalues --   -1.02401  -1.02376  -1.02318  -1.02188  -1.02090
 Alpha  occ. eigenvalues --   -1.01944  -0.67476  -0.61477  -0.58806  -0.57480
 Alpha  occ. eigenvalues --   -0.51116  -0.47864  -0.43623  -0.42154  -0.39647
 Alpha  occ. eigenvalues --   -0.29474  -0.27887  -0.26242  -0.25582  -0.25456
 Alpha  occ. eigenvalues --   -0.24753  -0.23182  -0.22051  -0.21500  -0.20928
 Alpha  occ. eigenvalues --   -0.19971
 Alpha virt. eigenvalues --   -0.07898  -0.07510  -0.07140  -0.06921  -0.06110
 Alpha virt. eigenvalues --   -0.05845  -0.05361  -0.05037  -0.04282  -0.03167
 Alpha virt. eigenvalues --   -0.02538  -0.01987  -0.01534   0.03589   0.04924
 Alpha virt. eigenvalues --    0.04952   0.06726   0.07750   0.08505   0.09335
 Alpha virt. eigenvalues --    0.09480   0.09593   0.09842   0.10475   0.10968
 Alpha virt. eigenvalues --    0.11065   0.11428   0.11591   0.12707   0.12892
 Alpha virt. eigenvalues --    0.14222   0.15140   0.15978   0.16435   0.16789
 Alpha virt. eigenvalues --    0.17554   0.19534   0.20065   0.20646   0.21076
 Alpha virt. eigenvalues --    0.21262   0.22185   0.22846   0.23728   0.24098
 Alpha virt. eigenvalues --    0.24371   0.25078   0.25481   0.26723   0.27530
 Alpha virt. eigenvalues --    0.29848   0.30249   0.30700   0.30911   0.31528
 Alpha virt. eigenvalues --    0.31811   0.32075   0.32957   0.33239   0.34169
 Alpha virt. eigenvalues --    0.34652   0.35465   0.36544   0.36839   0.37939
 Alpha virt. eigenvalues --    0.38537   0.39698   0.40629   0.41473   0.42028
 Alpha virt. eigenvalues --    0.42370   0.42584   0.43100   0.43694   0.44310
 Alpha virt. eigenvalues --    0.45346   0.45951   0.47291   0.47624   0.48296
 Alpha virt. eigenvalues --    0.48952   0.49273   0.50339   0.51351   0.51716
 Alpha virt. eigenvalues --    0.52877   0.53238   0.55211   0.56335   0.56636
 Alpha virt. eigenvalues --    0.56765   0.57773   0.58732   0.58933   0.59202
 Alpha virt. eigenvalues --    0.59265   0.59817   0.60491   0.60942   0.61594
 Alpha virt. eigenvalues --    0.62233   0.63473   0.64326   0.65099   0.65434
 Alpha virt. eigenvalues --    0.66697   0.67524   0.68040   0.69251   0.69882
 Alpha virt. eigenvalues --    0.70760   0.70924   0.72162   0.74469   0.75655
 Alpha virt. eigenvalues --    0.76386   0.77116   0.77875   0.78156   0.79024
 Alpha virt. eigenvalues --    0.79259   0.80371   0.80970   0.81917   0.82293
 Alpha virt. eigenvalues --    0.82940   0.83717   0.83955   0.84374   0.85676
 Alpha virt. eigenvalues --    0.86321   0.87364   0.87899   0.90118   0.90400
 Alpha virt. eigenvalues --    0.91196   0.92116   0.92564   0.93364   0.94405
 Alpha virt. eigenvalues --    0.94686   0.95492   0.96555   0.97334   0.98432
 Alpha virt. eigenvalues --    0.98797   0.99163   1.00483   1.00747   1.02219
 Alpha virt. eigenvalues --    1.04359   1.04946   1.05556   1.06667   1.07405
 Alpha virt. eigenvalues --    1.09666   1.09895   1.10439   1.11044   1.12771
 Alpha virt. eigenvalues --    1.13058   1.14163   1.15346   1.15788   1.16896
 Alpha virt. eigenvalues --    1.17651   1.17941   1.18297   1.18594   1.18744
 Alpha virt. eigenvalues --    1.19609   1.20320   1.20741   1.21106   1.21221
 Alpha virt. eigenvalues --    1.22162   1.22762   1.23141   1.23650   1.24359
 Alpha virt. eigenvalues --    1.24503   1.25009   1.25559   1.25875   1.26435
 Alpha virt. eigenvalues --    1.27105   1.28218   1.28770   1.29590   1.30270
 Alpha virt. eigenvalues --    1.30970   1.31944   1.32151   1.33558   1.34455
 Alpha virt. eigenvalues --    1.34992   1.36355   1.36717   1.37191   1.38168
 Alpha virt. eigenvalues --    1.40146   1.41288   1.42461   1.42926   1.43327
 Alpha virt. eigenvalues --    1.45178   1.45876   1.46986   1.47750   1.48904
 Alpha virt. eigenvalues --    1.49338   1.51047   1.52235   1.52467   1.53481
 Alpha virt. eigenvalues --    1.54687   1.55406   1.57417   1.58019   1.61729
 Alpha virt. eigenvalues --    1.63036   1.64897   1.69641   1.99599   2.08140
 Alpha virt. eigenvalues --    2.08584   2.09580   2.11147   2.15026   2.16156
 Alpha virt. eigenvalues --    2.16582   2.18054   2.18154   2.19618   2.20595
 Alpha virt. eigenvalues --    2.21093   2.23006   2.25628   2.25788   2.26535
 Alpha virt. eigenvalues --    2.28667   2.29824   2.30879   2.31430   2.31966
 Alpha virt. eigenvalues --    2.33942   2.35525   2.37050   2.39985   2.40134
 Alpha virt. eigenvalues --    2.41981   2.42675   2.44391   2.46306   2.46557
 Alpha virt. eigenvalues --    2.47449   2.49290   2.50016   2.51058   2.53945
 Alpha virt. eigenvalues --    2.56039   2.59726   2.61845   2.65215   2.65706
 Alpha virt. eigenvalues --    2.68590   2.72327   2.73145   2.74986   2.76860
 Alpha virt. eigenvalues --    2.77781   2.79199   2.79568   2.81235   2.81651
 Alpha virt. eigenvalues --    2.82476   2.83902   2.85439   2.88442   2.95764
 Alpha virt. eigenvalues --    3.23132   3.24882   3.28143   3.35857   3.37748
 Alpha virt. eigenvalues --    3.41525   3.91418   3.97473   3.97763   4.00024
 Alpha virt. eigenvalues --    4.00697   4.02660   4.06223   4.09362   4.12045
 Alpha virt. eigenvalues --    5.27759   5.32607   5.39200  35.35874  35.39441
 Alpha virt. eigenvalues --   35.41114  35.43057  35.45057  35.46587  35.48059
 Alpha virt. eigenvalues --   35.48165  35.52540  35.55621  35.60887  35.62411
 Alpha virt. eigenvalues --   35.83770  35.95158  36.03249  36.06432  36.19816
 Alpha virt. eigenvalues --   36.22813  36.96332  36.97536  37.00675  37.06634
 Alpha virt. eigenvalues --   37.08959  37.17846 113.58207 113.59489 120.20488
 Alpha virt. eigenvalues --  120.23513 120.24572 120.25417
          Condensed to atoms (all electrons):
               1          2          3          4          5          6
     1  Ge  31.561217  -0.015032   0.076117   0.067819   0.132304  -0.020033
     2  Ge  -0.015032  31.559989  -0.020039   0.138941  -0.021511   0.145447
     3  Bi   0.076117  -0.020039  22.287172  -0.020030   0.155759   0.076212
     4  Sn   0.067819   0.138941  -0.020030  21.317595  -0.016002   0.113543
     5  Bi   0.132304  -0.021511   0.155759  -0.016002  22.396514  -0.019145
     6  Ge  -0.020033   0.145447   0.076212   0.113543  -0.019145  31.550818
     7  Bi  -0.021029   0.206142   0.149458  -0.019801   0.161522   0.139532
     8  Bi   0.158452   0.172492  -0.024605   0.146859   0.197304  -0.021594
     9  Sn   0.169811  -0.013815   0.191830   0.156045  -0.018394   0.136944
               7          8          9
     1  Ge  -0.021029   0.158452   0.169811
     2  Ge   0.206142   0.172492  -0.013815
     3  Bi   0.149458  -0.024605   0.191830
     4  Sn  -0.019801   0.146859   0.156045
     5  Bi   0.161522   0.197304  -0.018394
     6  Ge   0.139532  -0.021594   0.136944
     7  Bi  22.373461  -0.030887  -0.018302
     8  Bi  -0.030887  22.375760  -0.017220
     9  Sn  -0.018302  -0.017220  21.427290
 Mulliken charges:
               1
     1  Ge  -0.109624
     2  Ge  -0.152613
     3  Bi   0.128126
     4  Sn   0.115031
     5  Bi   0.031650
     6  Ge  -0.101725
     7  Bi   0.059905
     8  Bi   0.043438
     9  Sn  -0.014187
 Sum of Mulliken charges =   0.00000
 Mulliken charges with hydrogens summed into heavy atoms:
               1
     1  Ge  -0.109624
     2  Ge  -0.152613
     3  Bi   0.128126
     4  Sn   0.115031
     5  Bi   0.031650
     6  Ge  -0.101725
     7  Bi   0.059905
     8  Bi   0.043438
     9  Sn  -0.014187
 Electronic spatial extent (au):  <R**2>=           6024.6421
 Charge=              0.0000 electrons
 Dipole moment (field-independent basis, Debye):
    X=             -1.3629    Y=             -0.8897    Z=             -1.0714  Tot=              1.9486
 Quadrupole moment (field-independent basis, Debye-Ang):
   XX=           -215.4432   YY=           -215.0266   ZZ=           -223.8267
   XY=              1.4280   XZ=              0.1425   YZ=             -0.1382
 Traceless Quadrupole moment (field-independent basis, Debye-Ang):
   XX=              2.6556   YY=              3.0723   ZZ=             -5.7279
   XY=              1.4280   XZ=              0.1425   YZ=             -0.1382
 Octapole moment (field-independent basis, Debye-Ang**2):
  XXX=           -101.0448  YYY=           -125.8682  ZZZ=            -41.0552  XYY=            -32.6284
  XXY=            -39.0385  XXZ=            -15.4252  XZZ=            -40.3394  YZZ=            -41.5610
  YYZ=            -17.4295  XYZ=              4.6639
 Hexadecapole moment (field-independent basis, Debye-Ang**3):
 XXXX=          -3445.3359 YYYY=          -3540.5780 ZZZZ=          -2856.9465 XXXY=            -91.6740
 XXXZ=            -23.4636 YYYX=            -55.2507 YYYZ=             33.2268 ZZZX=            -47.8892
 ZZZY=             10.3358 XXYY=          -1136.9729 XXZZ=          -1044.6248 YYZZ=          -1056.0360
 XXYZ=             -5.3634 YYXZ=             -4.1053 ZZXY=             -4.4448
 N-N= 3.544498633660D+03 E-N=-2.468030765031D+04  KE= 6.661926541297D+03
 No NMR shielding tensors so no spin-rotation constants.
 Leave Link  601 at Tue Mar  6 16:06:03 2018, MaxMem=   536870912 cpu:         1.9
 (Enter /share/apps//mg09/l701.exe)
 Compute integral first derivatives.
 ... and contract with generalized density number  0.
   1 Symmetry operations used in ECPInt.
 ECPInt:  NShTT=   10440 NPrTT=   41973 LenC2=    9654 LenP2D=   27457.
 LDataN:  DoStor=T MaxTD1= 9 Len=  602
 Leave Link  701 at Tue Mar  6 16:06:28 2018, MaxMem=   536870912 cpu:        92.1
 (Enter /share/apps//mg09/l702.exe)
 L702 exits ... SP integral derivatives will be done elsewhere.
 Leave Link  702 at Tue Mar  6 16:06:29 2018, MaxMem=   536870912 cpu:         0.1
 (Enter /share/apps//mg09/l703.exe)
 Compute integral first derivatives, UseDBF=F ICtDFT=           0.
 Integral derivatives from FoFJK, PRISM(SPDF).
 Calling FoFJK, ICntrl=      2127 FMM=F ISym2X=0 I1Cent= 0 IOpClX= 0 NMat=1 NMatS=1 NMatT=0.
 FoFJK:  IHMeth= 1 ICntrl=    2127 DoSepK=F KAlg= 0 I1Cent=   0 FoldK=F
 IRaf=         0 NMat=   1 IRICut=       1 DoRegI=T DoRafI=F ISym2E= 0.
 FoFCou: FMM=F IPFlag=           0 FMFlag=      100000 FMFlg1=         800
         NFxFlg=           0 DoJE=F BraDBF=F KetDBF=F FulRan=T
         wScrn=  0.000000 ICntrl=    2127 IOpCl=  0 I1Cent=           0 NGrid=           0
         NMat0=    1 NMatS0=      1 NMatT0=    0 NMatD0=    1 NMtDS0=    0 NMtDT0=    0
 Symmetry not used in FoFCou.
 Defaulting to unpruned grid for atomic number  83.
 Defaulting to unpruned grid for atomic number  83.
 Defaulting to unpruned grid for atomic number  83.
 Defaulting to unpruned grid for atomic number  83.
 Leave Link  703 at Tue Mar  6 16:10:07 2018, MaxMem=   536870912 cpu:       810.3
 (Enter /share/apps//mg09/l716.exe)
 Dipole        =-5.36189659D-01-3.50052569D-01-4.21534027D-01
 ***** Axes restored to original set *****
 -------------------------------------------------------------------
 Center     Atomic                   Forces (Hartrees/Bohr)
 Number     Number              X              Y              Z
 -------------------------------------------------------------------
      1       32          -0.002353629    0.000490248    0.012330373
      2       32          -0.004774725    0.009711984   -0.010776546
      3       83           0.008763450   -0.001123689    0.002494928
      4       50          -0.015374571   -0.004406073   -0.000937067
      5       83           0.004297917    0.006137537    0.002148125
      6       32           0.006960369   -0.009576757   -0.009352898
      7       83           0.007852756    0.004699689   -0.002162910
      8       83          -0.005620948    0.007606636    0.001740248
      9       50           0.000249381   -0.013539575    0.004515747
 -------------------------------------------------------------------
 Cartesian Forces:  Max     0.015374571 RMS     0.007213953
 Force constants in Cartesian coordinates: 
                1             2             3             4             5 
      1  0.140565D+00
      2  0.164479D-02  0.165881D+00
      3 -0.247252D-01 -0.174046D-01  0.209241D+00
      4  0.424472D-02  0.109512D-02 -0.505413D-02  0.153496D+00
      5 -0.127576D-02  0.510799D-02  0.411893D-02 -0.123188D-01  0.127652D+00
      6  0.438627D-02  0.264908D-02 -0.559229D-02  0.118691D-01 -0.261122D-01
      7 -0.428205D-01  0.105476D-01 -0.743014D-02  0.131520D-03  0.424792D-02
      8  0.587215D-02 -0.169961D-01  0.647806D-02  0.357264D-02  0.434530D-02
      9  0.255879D-01 -0.382293D-02 -0.327253D-01 -0.758370D-04  0.701379D-03
     10 -0.275375D-01 -0.650408D-02  0.123535D-01 -0.395871D-01 -0.131939D-02
     11 -0.804906D-02 -0.152524D-01  0.443729D-02 -0.243743D-01 -0.378152D-01
     12 -0.201523D-01 -0.838390D-02 -0.345314D-01  0.202753D-01  0.255441D-01
     13 -0.348769D-01 -0.249279D-01  0.165967D-02  0.416095D-02 -0.217232D-02
     14 -0.179117D-01 -0.477831D-01 -0.821554D-02 -0.205745D-02  0.144231D-03
     15  0.245637D-01  0.232423D-01 -0.348742D-01 -0.647819D-02 -0.109868D-02
     16  0.602880D-02  0.807757D-04  0.463896D-02 -0.302188D-01  0.202342D-01
     17  0.224186D-02  0.370919D-02 -0.827110D-02  0.154607D-01 -0.540169D-01
     18  0.450681D-02 -0.180395D-03 -0.849606D-02 -0.839328D-02  0.201842D-01
     19  0.125104D-02 -0.251442D-02  0.889695D-02 -0.742278D-01 -0.174191D-01
     20 -0.117724D-02  0.464631D-02  0.419435D-02  0.997127D-02 -0.194076D-01
     21 -0.166321D-03  0.149911D-02 -0.245936D-02 -0.260566D-01  0.897853D-03
     22 -0.256474D-01  0.104528D-01  0.421535D-02 -0.261522D-01  0.114605D-01
     23  0.207021D-01 -0.499979D-01  0.468984D-02  0.709771D-02 -0.244627D-01
     24 -0.201196D-01  0.339761D-01 -0.508835D-01  0.176981D-01 -0.260812D-01
     25 -0.212071D-01  0.101253D-01  0.544502D-02  0.815317D-02 -0.143719D-02
     26 -0.204715D-02 -0.493154D-01  0.997274D-02  0.155300D-02 -0.154698D-02
     27  0.611878D-02 -0.315748D-01 -0.396793D-01 -0.378451D-02  0.184566D-02
                6             7             8             9            10 
      6  0.169036D+00
      7 -0.874071D-02  0.204342D+00
      8  0.523112D-02 -0.145129D-01  0.162953D+00
      9  0.256914D-03  0.261918D-01 -0.157643D-01  0.138665D+00
     10 -0.110932D-01 -0.882972D-02  0.295340D-02 -0.583734D-02  0.202009D+00
     11  0.999248D-02 -0.382190D-02  0.532106D-02 -0.686577D-03  0.276494D-01
     12 -0.335338D-01 -0.386754D-02  0.140693D-02  0.655472D-02  0.143054D-01
     13 -0.654437D-02 -0.325152D-01  0.282043D-01  0.372575D-02 -0.280490D-03
     14 -0.940454D-03 -0.521767D-02 -0.540543D-01 -0.146290D-01 -0.773925D-02
     15 -0.375759D-02 -0.824557D-02  0.205707D-02 -0.170360D-01 -0.576295D-02
     16  0.109511D-01 -0.321705D-01 -0.530639D-02 -0.268249D-01 -0.467383D-01
     17 -0.155694D-01  0.114472D-01 -0.239718D-01 -0.451642D-03 -0.121707D-01
     18 -0.359045D-01  0.637738D-03 -0.174251D-01 -0.412440D-01 -0.504773D-02
     19  0.172722D-02 -0.298828D-01  0.140275D-01 -0.203120D-01 -0.289371D-02
     20  0.953041D-02 -0.114456D-01 -0.352539D-01  0.221381D-01 -0.437546D-02
     21 -0.327651D-01  0.964201D-02  0.216156D-01 -0.385938D-01  0.653477D-02
     22  0.422122D-04 -0.214956D-02  0.420302D-02 -0.482423D-02 -0.311715D-01
     23  0.688747D-02  0.712444D-02  0.164734D-02  0.302493D-02  0.121888D-01
     24 -0.592477D-01  0.266558D-02 -0.246715D-02  0.438534D-02 -0.115664D-03
     25 -0.259771D-02 -0.561049D-01 -0.390137D-01  0.236880D-02 -0.449710D-01
     26  0.833156D-02  0.163090D-02 -0.439902D-01  0.949006D-02 -0.106828D-01
     27  0.150784D-02 -0.108532D-01 -0.113219D-02 -0.202633D-01 -0.533681D-02
               11            12            13            14            15 
     11  0.163961D+00
     12 -0.273141D-02  0.126393D+00
     13 -0.236664D-02  0.130241D-02  0.132006D+00
     14  0.156824D-02 -0.124347D-02  0.250498D-01  0.151509D+00
     15 -0.441353D-02  0.344365D-02  0.412383D-02  0.263050D-01  0.116002D+00
     16  0.138191D-01  0.229275D-01  0.392161D-02  0.242116D-02  0.209440D-02
     17 -0.259331D-01 -0.483287D-02 -0.447075D-02 -0.833862D-03 -0.568864D-02
     18 -0.125039D-01 -0.290308D-01 -0.442467D-02 -0.632906D-02  0.582408D-03
     19 -0.608072D-02 -0.202715D-02 -0.240344D-01 -0.105182D-01  0.442220D-03
     20  0.429347D-02 -0.192954D-02  0.217730D-02 -0.220798D-01 -0.253874D-01
     21  0.277346D-02  0.453078D-02  0.171081D-01  0.468580D-02 -0.476879D-01
     22 -0.254914D-01 -0.130252D-01 -0.558658D-01  0.180814D-01 -0.733479D-02
     23 -0.586868D-01 -0.113995D-01 -0.168058D-01 -0.240903D-01 -0.120528D-01
     24 -0.136104D-01 -0.200704D-01 -0.147236D-01 -0.183834D-02 -0.216159D-01
     25  0.287154D-01 -0.197384D-01  0.748446D-02 -0.210812D-02 -0.340265D-02
     26 -0.374560D-01  0.356965D-02 -0.468794D-02 -0.438000D-02 -0.296320D-02
     27  0.167426D-01 -0.237561D-01 -0.222718D-02  0.220507D-02  0.494332D-02
               16            17            18            19            20 
     16  0.146926D+00
     17 -0.240904D-02  0.198563D+00
     18 -0.128055D-01  0.318625D-01  0.192701D+00
     19 -0.297666D-01 -0.104108D-01  0.102245D-01  0.160172D+00
     20 -0.338222D-01 -0.630978D-01  0.521040D-02  0.359464D-01  0.131915D+00
     21 -0.743525D-02 -0.213833D-01 -0.320941D-01 -0.101277D-01 -0.170821D-01
     22  0.199110D-02  0.725066D-02  0.594306D-02 -0.425852D-02  0.248028D-02
     23  0.123907D-02 -0.698728D-03 -0.712835D-02  0.182968D-02  0.536687D-03
     24 -0.123356D-02 -0.268221D-02  0.282332D-02  0.623305D-02  0.692176D-03
     25 -0.199728D-01 -0.693914D-02  0.935910D-02  0.364105D-02  0.245305D-03
     26  0.374336D-02 -0.337205D-01 -0.136903D-01 -0.486028D-02 -0.155205D-02
     27  0.768724D-02  0.270168D-01 -0.493373D-01  0.494290D-02  0.263369D-02
               21            22            23            24            25 
     21  0.139478D+00
     22  0.677666D-02  0.139431D+00
     23  0.934527D-03 -0.343038D-01  0.160224D+00
     24  0.372476D-02  0.677393D-02  0.117495D-01  0.132777D+00
     25  0.372428D-02  0.382295D-02  0.927851D-03  0.282178D-02  0.119154D+00
     26  0.605914D-02  0.586664D-02 -0.447174D-02  0.261562D-03  0.948423D-02
     27  0.586685D-02  0.143301D-02  0.329441D-02  0.810675D-02  0.201978D-02
               26            27 
     26  0.176433D+00
     27 -0.210312D-01  0.112611D+00
 Leave Link  716 at Tue Mar  6 16:10:07 2018, MaxMem=   536870912 cpu:         0.0
 (Enter /share/apps//mg09/l103.exe)

 GradGradGradGradGradGradGradGradGradGradGradGradGradGradGradGradGradGrad
 Berny optimization.
 Search for a local minimum.
 Step number   1 out of a maximum of  100
 All quantities printed in internal units (Hartrees-Bohrs-Radians)
 Second derivative matrix not updated -- first step.
 ITU=  0
     Eigenvalues ---    0.08185   0.11237   0.12052   0.13151   0.13337
     Eigenvalues ---    0.14450   0.14966   0.15102   0.16050   0.16809
     Eigenvalues ---    0.17795   0.21990   0.22665   0.23974   0.24448
     Eigenvalues ---    0.26084   0.26933   0.27586   0.28275   0.28758
     Eigenvalues ---    0.31960
 RFO step:  Lambda=-8.44988495D-03 EMin= 8.18470118D-02
 Linear search not attempted -- first point.
 TrRot=  0.000145  0.000593 -0.000933  0.832141  0.000088 -0.832137
 Variable       Old X    -DE/DX   Delta X   Delta X   Delta X     New X
                                 (Linear)    (Quad)   (Total)
    X1        1.69254  -0.00235   0.00000  -0.01210  -0.01220   1.68034
    Y1        0.85274   0.00049   0.00000   0.00660   0.00693   0.85967
    Z1       -4.11119   0.01233   0.00000   0.07357   0.07248  -4.03871
    X2        2.16036  -0.00477   0.00000  -0.02538  -0.02497   2.13539
    Y2       -1.34562   0.00971   0.00000   0.05562   0.05650  -1.28912
    Z2        4.40704  -0.01078   0.00000  -0.06545  -0.06643   4.34061
    X3       -3.59229   0.00876   0.00000   0.05366   0.05372  -3.53858
    Y3        2.11657  -0.00112   0.00000  -0.01724  -0.01675   2.09983
    Z3       -1.36126   0.00249   0.00000   0.02133   0.02048  -1.34079
    X4        4.71691  -0.01537   0.00000  -0.08412  -0.08391   4.63300
    Y4        2.29753  -0.00441   0.00000  -0.02521  -0.02453   2.27301
    Z4        1.16815  -0.00094   0.00000  -0.01021  -0.01156   1.15658
    X5       -1.71543   0.00430   0.00000   0.02623   0.02625  -1.68918
    Y5       -3.27948   0.00614   0.00000   0.04234   0.04277  -3.23671
    Z5       -2.37069   0.00215   0.00000   0.02071   0.02009  -2.35061
    X6       -0.40446   0.00696   0.00000   0.03549   0.03583  -0.36862
    Y6        3.19180  -0.00958   0.00000  -0.04562  -0.04480   3.14700
    Z6        3.63750  -0.00935   0.00000  -0.05502  -0.05614   3.58136
    X7       -3.07880   0.00785   0.00000   0.04958   0.04991  -3.02889
    Y7       -1.62783   0.00470   0.00000   0.02244   0.02322  -1.60461
    Z7        3.04209  -0.00216   0.00000  -0.02863  -0.02928   3.01281
    X8        3.72982  -0.00562   0.00000  -0.04765  -0.04754   3.68229
    Y8       -3.00850   0.00761   0.00000   0.04524   0.04580  -2.96270
    Z8       -0.71730   0.00174   0.00000   0.01772   0.01676  -0.70053
    X9        0.80621   0.00025   0.00000   0.00286   0.00291   0.80912
    Y9        5.60189  -0.01354   0.00000  -0.08966  -0.08915   5.51274
    Z9       -1.34961   0.00452   0.00000   0.03495   0.03361  -1.31601
         Item               Value     Threshold  Converged?
 Maximum Force            0.015375     0.000450     NO 
 RMS     Force            0.007214     0.000300     NO 
 Maximum Displacement     0.089148     0.001800     NO 
 RMS     Displacement     0.043892     0.001200     NO 
 Predicted change in Energy=-4.444844D-03
 Lowest energy point so far.  Saving SCF results.
 GradGradGradGradGradGradGradGradGradGradGradGradGradGradGradGradGradGrad

 Leave Link  103 at Tue Mar  6 16:10:07 2018, MaxMem=   536870912 cpu:         0.1
 (Enter /share/apps//mg09/l202.exe)
                          Input orientation:                          
 ---------------------------------------------------------------------
 Center     Atomic      Atomic             Coordinates (Angstroms)
 Number     Number       Type             X           Y           Z
 ---------------------------------------------------------------------
      1         32           0        0.889196    0.454916   -2.137192
      2         32           0        1.129998   -0.682171    2.296954
      3         83           0       -1.872534    1.111181   -0.709513
      4         50           0        2.451676    1.202823    0.612038
      5         83           0       -0.893877   -1.712792   -1.243887
      6         32           0       -0.195068    1.665322    1.895177
      7         83           0       -1.602818   -0.849122    1.594312
      8         83           0        1.948583   -1.567796   -0.370707
      9         50           0        0.428169    2.917216   -0.696400
 ---------------------------------------------------------------------
                    Distance matrix (angstroms):
                    1          2          3          4          5
     1  Ge   0.000000
     2  Ge   4.583951   0.000000
     3  Bi   3.177437   4.611958   0.000000
     4  Sn   3.249458   2.852889   4.522576   0.000000
     5  Bi   2.945557   4.206638   3.036141   4.810197   0.000000
     6  Ge   4.347495   2.725426   3.147281   2.977516   4.664088
     7  Bi   4.672770   2.826634   3.036963   4.649114   3.050229
     8  Bi   2.886890   2.927597   4.678958   2.982486   2.977087
     9  Sn   2.889870   4.733743   2.924922   2.957319   4.846083
                    6          7          8          9
     6  Ge   0.000000
     7  Bi   2.897362   0.000000
     8  Bi   4.492496   4.121922   0.000000
     9  Sn   2.944815   4.853614   4.746901   0.000000
 Stoichiometry    Bi4Ge3Sn2
 Framework group  C1[X(Bi4Ge3Sn2)]
 Deg. of freedom    21
 Full point group                 C1      NOp   1
 RotChk:  IX=0 Diff= 5.00D-02
 Largest Abelian subgroup         C1      NOp   1
 Largest concise Abelian subgroup C1      NOp   1
                         Standard orientation:                         
 ---------------------------------------------------------------------
 Center     Atomic      Atomic             Coordinates (Angstroms)
 Number     Number       Type             X           Y           Z
 ---------------------------------------------------------------------
      1         32           0        0.895583    0.407720   -2.144134
      2         32           0        1.109270   -0.709259    2.296507
      3         83           0       -1.837746    1.168229   -0.713524
      4         50           0        2.490728    1.118215    0.596246
      5         83           0       -0.959002   -1.691255   -1.232478
      6         32           0       -0.134801    1.680188    1.883253
      7         83           0       -1.629646   -0.785790    1.602001
      8         83           0        1.889209   -1.639399   -0.367580
      9         50           0        0.524167    2.893487   -0.717824
 ---------------------------------------------------------------------
 Rotational constants (GHZ):      0.1002461      0.0971443      0.0831426
 Leave Link  202 at Tue Mar  6 16:10:09 2018, MaxMem=   536870912 cpu:         0.1
 (Enter /share/apps//mg09/l301.exe)
 Standard basis: def2TZVP (5D, 7F)
 Ernie: Thresh=  0.10000D-02 Tol=  0.10000D-05 Strict=F.
 There are   519 symmetry adapted cartesian basis functions of A   symmetry.
 There are   444 symmetry adapted basis functions of A   symmetry.
   444 basis functions,   963 primitive gaussians,   519 cartesian basis functions
   116 alpha electrons      116 beta electrons
       nuclear repulsion energy      3600.5844703173 Hartrees.
 IExCor= 1009 DFT=T Ex+Corr=PBE1PBE ExCW=0 ScaHFX=  0.250000
 ScaDFX=  0.750000  0.750000  1.000000  1.000000 ScalE2=  1.000000  1.000000
 IRadAn=      0 IRanWt=     -1 IRanGd=            0 ICorTp=0 IEmpDi=  4
 NAtoms=    9 NActive=    9 NUniq=    9 SFac= 1.00D+00 NAtFMM=   60 NAOKFM=F Big=F
 Integral buffers will be    131072 words long.
 Raffenetti 2 integral format.
 Two-electron integral symmetry is turned on.
 Leave Link  301 at Tue Mar  6 16:10:09 2018, MaxMem=   536870912 cpu:         0.3
 (Enter /share/apps//mg09/l302.exe)
 NPDir=0 NMtPBC=     1 NCelOv=     1 NCel=       1 NClECP=     1 NCelD=      1
         NCelK=      1 NCelE2=     1 NClLst=     1 CellRange=     0.0.
 One-electron integrals computed using PRISM.
   1 Symmetry operations used in ECPInt.
 ECPInt:  NShTT=   10440 NPrTT=   41973 LenC2=    9695 LenP2D=   27675.
 LDataN:  DoStor=T MaxTD1= 8 Len=  415
 NBasis=   444 RedAO= T EigKep=  1.03D-03  NBF=   444
 NBsUse=   444 1.00D-06 EigRej= -1.00D+00 NBFU=   444
 Precomputing XC quadrature grid using
 IXCGrd= 4 IRadAn=           0 IRanWt=          -1 IRanGd=           0 AccXCQ= 0.00D+00.
 Defaulting to unpruned grid for atomic number  50.
 Defaulting to unpruned grid for atomic number  83.
 Defaulting to unpruned grid for atomic number  83.
 Generated NRdTot=       0 NPtTot=           0 NUsed=           0 NTot=          32
 NSgBfM=   506   506   506   506   506 MxSgAt=     9 MxSgA2=     9.
 Leave Link  302 at Tue Mar  6 16:10:21 2018, MaxMem=   536870912 cpu:        36.9
 (Enter /share/apps//mg09/l303.exe)
 DipDrv:  MaxL=1.
 Leave Link  303 at Tue Mar  6 16:10:21 2018, MaxMem=   536870912 cpu:         0.3
 (Enter /share/apps//mg09/l401.exe)
 Initial guess from the checkpoint file:  "Isomer_51.chk"
 B after Tr=     0.000000    0.000000    0.000000
         Rot=    0.999844    0.003018   -0.001277    0.017347 Ang=   2.02 deg.
 Guess basis will be translated and rotated to current coordinates.
 JPrj=2 DoOrth=T DoCkMO=T.
 Generating alternative initial guess.
 ExpMin= 4.62D-02 ExpMax= 4.66D+05 ExpMxC= 4.50D+03 IAcc=2 IRadAn=         4 AccDes= 0.00D+00
 Harris functional with IExCor= 1009 and IRadAn=       4 diagonalized for initial guess.
 HarFok:  IExCor= 1009 AccDes= 0.00D+00 IRadAn=         4 IDoV= 1 UseB2=F ITyADJ=14
 ICtDFT=  3500011 ScaDFX=  1.000000  1.000000  1.000000  1.000000
 Defaulting to unpruned grid for atomic number  83.
 Defaulting to unpruned grid for atomic number  83.
 Defaulting to unpruned grid for atomic number  83.
 Defaulting to unpruned grid for atomic number  83.
 FoFCou: FMM=F IPFlag=           0 FMFlag=      100000 FMFlg1=           0
         NFxFlg=           0 DoJE=T BraDBF=F KetDBF=T FulRan=T
         wScrn=  0.000000 ICntrl=     500 IOpCl=  0 I1Cent=   200000004 NGrid=           0
         NMat0=    1 NMatS0=      1 NMatT0=    0 NMatD0=    1 NMtDS0=    0 NMtDT0=    0
 Petite list used in FoFCou.
 Harris En= -7518.62324981251    
 Leave Link  401 at Tue Mar  6 16:10:25 2018, MaxMem=   536870912 cpu:        13.9
 (Enter /share/apps//mg09/l502.exe)
 Closed shell SCF:
 Using DIIS extrapolation, IDIIS=  1040.
 Integral symmetry usage will be decided dynamically.
 IVT=     1410107 IEndB=     1410107 NGot=   536870912 MDV=   536322046
 LenX=   536322046 LenY=   536052166
 Requested convergence on RMS density matrix=1.00D-08 within 768 cycles.
 Requested convergence on MAX density matrix=1.00D-06.
 Requested convergence on             energy=1.00D-06.
 No special actions if energy rises.
 Fock matrices will be formed incrementally for  20 cycles.

 Cycle   1  Pass 1  IDiag  1:
 FoFJK:  IHMeth= 1 ICntrl=       0 DoSepK=F KAlg= 0 I1Cent=   0 FoldK=F
 IRaf= 880000000 NMat=   1 IRICut=       1 DoRegI=T DoRafI=F ISym2E= 0.
 FoFCou: FMM=F IPFlag=           0 FMFlag=      100000 FMFlg1=           0
         NFxFlg=           0 DoJE=F BraDBF=F KetDBF=F FulRan=T
         wScrn=  0.000000 ICntrl=       0 IOpCl=  0 I1Cent=           0 NGrid=           0
         NMat0=    1 NMatS0=      1 NMatT0=    0 NMatD0=    1 NMtDS0=    0 NMtDT0=    0
 Symmetry not used in FoFCou.
 Defaulting to unpruned grid for atomic number  83.
 Defaulting to unpruned grid for atomic number  83.
 Defaulting to unpruned grid for atomic number  83.
 Defaulting to unpruned grid for atomic number  83.
 E= -7517.81106751589    
 DIIS: error= 6.17D-03 at cycle   1 NSaved=   1.
 NSaved= 1 IEnMin= 1 EnMin= -7517.81106751589     IErMin= 1 ErrMin= 6.17D-03
 ErrMax= 6.17D-03  0.00D+00 EMaxC= 1.00D-01 BMatC= 8.88D-03 BMatP= 8.88D-03
 IDIUse=3 WtCom= 9.38D-01 WtEn= 6.17D-02
 Coeff-Com:  0.100D+01
 Coeff-En:   0.100D+01
 Coeff:      0.100D+01
 Gap=     7.245 Goal=   None    Shift=    0.000
 GapD=    7.245 DampG=2.000 DampE=1.000 DampFc=2.0000 IDamp=-1.
 RMSDP=1.92D-04 MaxDP=6.88D-03              OVMax= 2.25D-02

 Cycle   2  Pass 1  IDiag  1:
 RMSU=  1.91D-04    CP:  1.00D+00
 E= -7517.81108679315     Delta-E=       -0.000019277257 Rises=F Damp=F
 DIIS: error= 1.30D-03 at cycle   2 NSaved=   2.
 NSaved= 2 IEnMin= 2 EnMin= -7517.81108679315     IErMin= 2 ErrMin= 1.30D-03
 ErrMax= 1.30D-03  0.00D+00 EMaxC= 1.00D-01 BMatC= 1.66D-03 BMatP= 8.88D-03
 IDIUse=3 WtCom= 9.87D-01 WtEn= 1.30D-02
 Coeff-Com:  0.196D+00 0.804D+00
 Coeff-En:   0.495D+00 0.505D+00
 Coeff:      0.200D+00 0.800D+00
 Gap=     0.122 Goal=   None    Shift=    0.000
 RMSDP=2.22D-04 MaxDP=9.44D-03 DE=-1.93D-05 OVMax= 1.76D-02

 Cycle   3  Pass 1  IDiag  1:
 RMSU=  2.01D-04    CP:  9.99D-01  5.34D-01
 E= -7517.80897209817     Delta-E=        0.002114694971 Rises=F Damp=F
 DIIS: error= 1.99D-03 at cycle   3 NSaved=   3.
 NSaved= 3 IEnMin= 2 EnMin= -7517.81108679315     IErMin= 2 ErrMin= 1.30D-03
 ErrMax= 1.99D-03  0.00D+00 EMaxC= 1.00D-01 BMatC= 4.04D-03 BMatP= 1.66D-03
 IDIUse=3 WtCom= 1.83D-01 WtEn= 8.17D-01
 Coeff-Com:  0.672D-02 0.608D+00 0.385D+00
 Coeff-En:   0.000D+00 0.669D+00 0.331D+00
 Coeff:      0.123D-02 0.658D+00 0.341D+00
 Gap=     0.124 Goal=   None    Shift=    0.000
 RMSDP=1.24D-04 MaxDP=5.69D-03 DE= 2.11D-03 OVMax= 1.24D-02

 Cycle   4  Pass 1  IDiag  1:
 RMSU=  4.40D-05    CP:  9.99D-01  7.94D-01  4.86D-01
 E= -7517.81224714124     Delta-E=       -0.003275043067 Rises=F Damp=F
 DIIS: error= 4.24D-04 at cycle   4 NSaved=   4.
 NSaved= 4 IEnMin= 4 EnMin= -7517.81224714124     IErMin= 4 ErrMin= 4.24D-04
 ErrMax= 4.24D-04  0.00D+00 EMaxC= 1.00D-01 BMatC= 2.13D-04 BMatP= 1.66D-03
 IDIUse=3 WtCom= 9.96D-01 WtEn= 4.24D-03
 Coeff-Com:  0.401D-04 0.433D+00 0.228D+00 0.338D+00
 Coeff-En:   0.000D+00 0.872D-01 0.000D+00 0.913D+00
 Coeff:      0.400D-04 0.432D+00 0.227D+00 0.341D+00
 Gap=     0.124 Goal=   None    Shift=    0.000
 RMSDP=4.04D-05 MaxDP=1.96D-03 DE=-3.28D-03 OVMax= 4.20D-03

 Cycle   5  Pass 1  IDiag  1:
 RMSU=  1.60D-05    CP:  9.99D-01  8.51D-01  4.44D-01  2.22D-01
 E= -7517.81241830877     Delta-E=       -0.000171167530 Rises=F Damp=F
 DIIS: error= 1.16D-04 at cycle   5 NSaved=   5.
 NSaved= 5 IEnMin= 5 EnMin= -7517.81241830877     IErMin= 5 ErrMin= 1.16D-04
 ErrMax= 1.16D-04  0.00D+00 EMaxC= 1.00D-01 BMatC= 1.94D-05 BMatP= 2.13D-04
 IDIUse=3 WtCom= 9.99D-01 WtEn= 1.16D-03
 Coeff-Com: -0.944D-03 0.229D+00 0.109D+00 0.262D+00 0.401D+00
 Coeff-En:   0.000D+00 0.000D+00 0.000D+00 0.120D+00 0.880D+00
 Coeff:     -0.942D-03 0.228D+00 0.109D+00 0.262D+00 0.402D+00
 Gap=     0.124 Goal=   None    Shift=    0.000
 RMSDP=1.19D-05 MaxDP=5.66D-04 DE=-1.71D-04 OVMax= 1.26D-03

 Cycle   6  Pass 1  IDiag  1:
 RMSU=  4.04D-06    CP:  9.99D-01  8.60D-01  4.34D-01  4.13D-01  5.75D-01
 E= -7517.81244058316     Delta-E=       -0.000022274389 Rises=F Damp=F
 DIIS: error= 1.22D-05 at cycle   6 NSaved=   6.
 NSaved= 6 IEnMin= 6 EnMin= -7517.81244058316     IErMin= 6 ErrMin= 1.22D-05
 ErrMax= 1.22D-05  0.00D+00 EMaxC= 1.00D-01 BMatC= 3.74D-07 BMatP= 1.94D-05
 IDIUse=1 WtCom= 1.00D+00 WtEn= 0.00D+00
 Coeff-Com: -0.407D-03 0.669D-01 0.320D-01 0.899D-01 0.180D+00 0.632D+00
 Coeff:     -0.407D-03 0.669D-01 0.320D-01 0.899D-01 0.180D+00 0.632D+00
 Gap=     0.124 Goal=   None    Shift=    0.000
 RMSDP=2.68D-06 MaxDP=2.08D-04 DE=-2.23D-05 OVMax= 3.96D-04

 Cycle   7  Pass 1  IDiag  1:
 RMSU=  2.18D-06    CP:  9.99D-01  8.63D-01  4.37D-01  4.06D-01  6.37D-01
                    CP:  8.71D-01
 E= -7517.81244070504     Delta-E=       -0.000000121881 Rises=F Damp=F
 DIIS: error= 1.55D-05 at cycle   7 NSaved=   7.
 NSaved= 7 IEnMin= 7 EnMin= -7517.81244070504     IErMin= 6 ErrMin= 1.22D-05
 ErrMax= 1.55D-05  0.00D+00 EMaxC= 1.00D-01 BMatC= 2.15D-07 BMatP= 3.74D-07
 IDIUse=1 WtCom= 1.00D+00 WtEn= 0.00D+00
 Coeff-Com: -0.137D-03 0.925D-02 0.514D-02 0.216D-01 0.619D-01 0.463D+00
 Coeff-Com:  0.439D+00
 Coeff:     -0.137D-03 0.925D-02 0.514D-02 0.216D-01 0.619D-01 0.463D+00
 Coeff:      0.439D+00
 Gap=     0.124 Goal=   None    Shift=    0.000
 RMSDP=1.97D-06 MaxDP=7.70D-05 DE=-1.22D-07 OVMax= 2.26D-04

 Cycle   8  Pass 1  IDiag  1:
 RMSU=  1.16D-06    CP:  9.99D-01  8.64D-01  4.39D-01  4.11D-01  6.43D-01
                    CP:  1.08D+00  4.22D-01
 E= -7517.81244086499     Delta-E=       -0.000000159951 Rises=F Damp=F
 DIIS: error= 1.22D-05 at cycle   8 NSaved=   8.
 NSaved= 8 IEnMin= 8 EnMin= -7517.81244086499     IErMin= 6 ErrMin= 1.22D-05
 ErrMax= 1.22D-05  0.00D+00 EMaxC= 1.00D-01 BMatC= 1.08D-07 BMatP= 2.15D-07
 IDIUse=1 WtCom= 1.00D+00 WtEn= 0.00D+00
 Coeff-Com:  0.838D-05-0.149D-01-0.623D-02-0.103D-01-0.291D-02 0.228D+00
 Coeff-Com:  0.415D+00 0.391D+00
 Coeff:      0.838D-05-0.149D-01-0.623D-02-0.103D-01-0.291D-02 0.228D+00
 Coeff:      0.415D+00 0.391D+00
 Gap=     0.124 Goal=   None    Shift=    0.000
 RMSDP=9.03D-07 MaxDP=5.11D-05 DE=-1.60D-07 OVMax= 1.25D-04

 Cycle   9  Pass 1  IDiag  1:
 RMSU=  3.27D-07    CP:  9.99D-01  8.64D-01  4.40D-01  4.14D-01  6.53D-01
                    CP:  1.10D+00  6.22D-01  4.32D-01
 E= -7517.81244099348     Delta-E=       -0.000000128482 Rises=F Damp=F
 DIIS: error= 1.46D-06 at cycle   9 NSaved=   9.
 NSaved= 9 IEnMin= 9 EnMin= -7517.81244099348     IErMin= 9 ErrMin= 1.46D-06
 ErrMax= 1.46D-06  0.00D+00 EMaxC= 1.00D-01 BMatC= 3.29D-09 BMatP= 1.08D-07
 IDIUse=1 WtCom= 1.00D+00 WtEn= 0.00D+00
 Coeff-Com:  0.203D-04-0.945D-02-0.398D-02-0.787D-02-0.823D-02 0.758D-01
 Coeff-Com:  0.201D+00 0.225D+00 0.528D+00
 Coeff:      0.203D-04-0.945D-02-0.398D-02-0.787D-02-0.823D-02 0.758D-01
 Coeff:      0.201D+00 0.225D+00 0.528D+00
 Gap=     0.124 Goal=   None    Shift=    0.000
 RMSDP=1.95D-07 MaxDP=9.04D-06 DE=-1.28D-07 OVMax= 3.42D-05

 Cycle  10  Pass 1  IDiag  1:
 RMSU=  1.14D-07    CP:  9.99D-01  8.64D-01  4.40D-01  4.14D-01  6.59D-01
                    CP:  1.10D+00  6.50D-01  4.94D-01  7.94D-01
 E= -7517.81244099717     Delta-E=       -0.000000003698 Rises=F Damp=F
 DIIS: error= 3.40D-07 at cycle  10 NSaved=  10.
 NSaved=10 IEnMin=10 EnMin= -7517.81244099717     IErMin=10 ErrMin= 3.40D-07
 ErrMax= 3.40D-07  0.00D+00 EMaxC= 1.00D-01 BMatC= 2.00D-10 BMatP= 3.29D-09
 IDIUse=1 WtCom= 1.00D+00 WtEn= 0.00D+00
 Coeff-Com:  0.709D-05-0.241D-02-0.990D-03-0.211D-02-0.354D-02 0.101D-01
 Coeff-Com:  0.412D-01 0.556D-01 0.227D+00 0.675D+00
 Coeff:      0.709D-05-0.241D-02-0.990D-03-0.211D-02-0.354D-02 0.101D-01
 Coeff:      0.412D-01 0.556D-01 0.227D+00 0.675D+00
 Gap=     0.124 Goal=   None    Shift=    0.000
 RMSDP=7.53D-08 MaxDP=3.39D-06 DE=-3.70D-09 OVMax= 1.27D-05

 Cycle  11  Pass 1  IDiag  1:
 RMSU=  6.07D-08    CP:  9.99D-01  8.64D-01  4.40D-01  4.15D-01  6.59D-01
                    CP:  1.11D+00  6.54D-01  5.02D-01  8.70D-01  9.39D-01
 E= -7517.81244099714     Delta-E=        0.000000000035 Rises=F Damp=F
 DIIS: error= 4.89D-07 at cycle  11 NSaved=  11.
 NSaved=11 IEnMin=10 EnMin= -7517.81244099717     IErMin=10 ErrMin= 3.40D-07
 ErrMax= 4.89D-07  0.00D+00 EMaxC= 1.00D-01 BMatC= 2.05D-10 BMatP= 2.00D-10
 IDIUse=1 WtCom= 1.00D+00 WtEn= 0.00D+00
 Coeff-Com:  0.966D-06 0.212D-03 0.117D-03 0.889D-04-0.104D-02-0.877D-02
 Coeff-Com: -0.136D-01-0.650D-02 0.662D-01 0.570D+00 0.393D+00
 Coeff:      0.966D-06 0.212D-03 0.117D-03 0.889D-04-0.104D-02-0.877D-02
 Coeff:     -0.136D-01-0.650D-02 0.662D-01 0.570D+00 0.393D+00
 Gap=     0.124 Goal=   None    Shift=    0.000
 RMSDP=5.13D-08 MaxDP=2.17D-06 DE= 3.46D-11 OVMax= 5.90D-06

 Cycle  12  Pass 1  IDiag  1:
 RMSU=  2.48D-08    CP:  9.99D-01  8.64D-01  4.40D-01  4.15D-01  6.60D-01
                    CP:  1.11D+00  6.55D-01  5.03D-01  8.98D-01  1.09D+00
                    CP:  3.73D-01
 E= -7517.81244099746     Delta-E=       -0.000000000320 Rises=F Damp=F
 DIIS: error= 1.70D-07 at cycle  12 NSaved=  12.
 NSaved=12 IEnMin=12 EnMin= -7517.81244099746     IErMin=12 ErrMin= 1.70D-07
 ErrMax= 1.70D-07  0.00D+00 EMaxC= 1.00D-01 BMatC= 2.62D-11 BMatP= 2.00D-10
 IDIUse=1 WtCom= 1.00D+00 WtEn= 0.00D+00
 Coeff-Com: -0.446D-06 0.526D-03 0.241D-03 0.382D-03-0.145D-03-0.756D-02
 Coeff-Com: -0.162D-01-0.128D-01 0.106D-01 0.291D+00 0.300D+00 0.434D+00
 Coeff:     -0.446D-06 0.526D-03 0.241D-03 0.382D-03-0.145D-03-0.756D-02
 Coeff:     -0.162D-01-0.128D-01 0.106D-01 0.291D+00 0.300D+00 0.434D+00
 Gap=     0.124 Goal=   None    Shift=    0.000
 RMSDP=1.81D-08 MaxDP=9.18D-07 DE=-3.20D-10 OVMax= 2.57D-06

 Cycle  13  Pass 1  IDiag  1:
 RMSU=  8.36D-09    CP:  9.99D-01  8.64D-01  4.40D-01  4.15D-01  6.60D-01
                    CP:  1.11D+00  6.55D-01  5.05D-01  9.10D-01  1.11D+00
                    CP:  5.40D-01  5.94D-01
 E= -7517.81244099737     Delta-E=        0.000000000095 Rises=F Damp=F
 DIIS: error= 2.30D-08 at cycle  13 NSaved=  13.
 NSaved=13 IEnMin=12 EnMin= -7517.81244099746     IErMin=13 ErrMin= 2.30D-08
 ErrMax= 2.30D-08  0.00D+00 EMaxC= 1.00D-01 BMatC= 1.35D-12 BMatP= 2.62D-11
 IDIUse=1 WtCom= 1.00D+00 WtEn= 0.00D+00
 Coeff-Com: -0.427D-06 0.275D-03 0.122D-03 0.212D-03 0.117D-03-0.294D-02
 Coeff-Com: -0.718D-02-0.638D-02-0.731D-02 0.730D-01 0.106D+00 0.238D+00
 Coeff-Com:  0.606D+00
 Coeff:     -0.427D-06 0.275D-03 0.122D-03 0.212D-03 0.117D-03-0.294D-02
 Coeff:     -0.718D-02-0.638D-02-0.731D-02 0.730D-01 0.106D+00 0.238D+00
 Coeff:      0.606D+00
 Gap=     0.124 Goal=   None    Shift=    0.000
 RMSDP=4.72D-09 MaxDP=2.76D-07 DE= 9.46D-11 OVMax= 8.01D-07

 SCF Done:  E(RPBE1PBE) =  -7517.81244100     A.U. after   13 cycles
            NFock= 13  Conv=0.47D-08     -V/T= 2.1284
 KE= 6.662141727603D+03 PE=-2.479256289536D+04 EE= 7.012024256438D+03
 Leave Link  502 at Tue Mar  6 16:23:05 2018, MaxMem=   536870912 cpu:      2752.9
 (Enter /share/apps//mg09/l701.exe)
 Compute integral first derivatives.
 ... and contract with generalized density number  0.
   1 Symmetry operations used in ECPInt.
 ECPInt:  NShTT=   10440 NPrTT=   41973 LenC2=    9695 LenP2D=   27675.
 LDataN:  DoStor=T MaxTD1= 9 Len=  602
 Leave Link  701 at Tue Mar  6 16:23:29 2018, MaxMem=   536870912 cpu:        87.4
 (Enter /share/apps//mg09/l702.exe)
 L702 exits ... SP integral derivatives will be done elsewhere.
 Leave Link  702 at Tue Mar  6 16:23:29 2018, MaxMem=   536870912 cpu:         0.0
 (Enter /share/apps//mg09/l703.exe)
 Compute integral first derivatives, UseDBF=F ICtDFT=           0.
 Integral derivatives from FoFJK, PRISM(SPDF).
 Calling FoFJK, ICntrl=      2127 FMM=F ISym2X=0 I1Cent= 0 IOpClX= 0 NMat=1 NMatS=1 NMatT=0.
 FoFJK:  IHMeth= 1 ICntrl=    2127 DoSepK=F KAlg= 0 I1Cent=   0 FoldK=F
 IRaf=         0 NMat=   1 IRICut=       1 DoRegI=T DoRafI=F ISym2E= 0.
 FoFCou: FMM=F IPFlag=           0 FMFlag=      100000 FMFlg1=         800
         NFxFlg=           0 DoJE=F BraDBF=F KetDBF=F FulRan=T
         wScrn=  0.000000 ICntrl=    2127 IOpCl=  0 I1Cent=           0 NGrid=           0
         NMat0=    1 NMatS0=      1 NMatT0=    0 NMatD0=    1 NMtDS0=    0 NMtDT0=    0
 Symmetry not used in FoFCou.
 Defaulting to unpruned grid for atomic number  83.
 Defaulting to unpruned grid for atomic number  83.
 Defaulting to unpruned grid for atomic number  83.
 Defaulting to unpruned grid for atomic number  83.
 Leave Link  703 at Tue Mar  6 16:27:18 2018, MaxMem=   536870912 cpu:       868.4
 (Enter /share/apps//mg09/l716.exe)
 Dipole        =-5.81266843D-01-3.81494071D-01-4.24815690D-01
 ***** Axes restored to original set *****
 -------------------------------------------------------------------
 Center     Atomic                   Forces (Hartrees/Bohr)
 Number     Number              X              Y              Z
 -------------------------------------------------------------------
      1       32          -0.001008801    0.000731183    0.007026941
      2       32          -0.002318064    0.005949167   -0.004824384
      3       83           0.002214605    0.000814026    0.000045424
      4       50          -0.007767365   -0.001868849   -0.000314992
      5       83           0.000917592    0.001132374   -0.001493962
      6       32           0.004481040   -0.005681538   -0.004897624
      7       83           0.002837767    0.001774481    0.001759428
      8       83          -0.000253571    0.002244671    0.000723980
      9       50           0.000896796   -0.005095515    0.001975187
 -------------------------------------------------------------------
 Cartesian Forces:  Max     0.007767365 RMS     0.003419771
 Leave Link  716 at Tue Mar  6 16:27:18 2018, MaxMem=   536870912 cpu:         0.1
 (Enter /share/apps//mg09/l103.exe)

 GradGradGradGradGradGradGradGradGradGradGradGradGradGradGradGradGradGrad
 Berny optimization.
 Search for a local minimum.
 Step number   2 out of a maximum of  100
 All quantities printed in internal units (Hartrees-Bohrs-Radians)
 Update second derivatives using D2CorN and points    1    2
 DE= -6.07D-03 DEPred=-4.44D-03 R= 1.37D+00
 TightC=F SS=  1.41D+00  RLast= 2.28D-01 DXNew= 5.0454D-01 6.8421D-01
 Trust test= 1.37D+00 RLast= 2.28D-01 DXMaxT set to 5.05D-01
 ITU=  1  0
     Eigenvalues ---    0.07963   0.09462   0.11328   0.12135   0.13206
     Eigenvalues ---    0.13422   0.14579   0.14997   0.16033   0.16756
     Eigenvalues ---    0.17702   0.21919   0.22641   0.23932   0.24272
     Eigenvalues ---    0.26042   0.26920   0.27560   0.28281   0.28756
     Eigenvalues ---    0.31908
 RFO step:  Lambda=-5.10677755D-04 EMin= 7.96337525D-02
 Quartic linear search produced a step of  0.63904.
 TrRot=  0.000255  0.000198  0.000061  0.000008  0.000015  0.000008
 MatCor failed.
 Variable       Old X    -DE/DX   Delta X   Delta X   Delta X     New X
                                 (Linear)    (Quad)   (Total)
    X1        1.68034  -0.00101  -0.00779   0.00201  -0.00561   1.67473
    Y1        0.85967   0.00073   0.00443   0.00307   0.00772   0.86739
    Z1       -4.03871   0.00703   0.04632   0.01122   0.05757  -3.98114
    X2        2.13539  -0.00232  -0.01596  -0.00007  -0.01569   2.11969
    Y2       -1.28912   0.00595   0.03611   0.01618   0.05252  -1.23659
    Z2        4.34061  -0.00482  -0.04245  -0.00178  -0.04421   4.29641
    X3       -3.53858   0.00221   0.03433  -0.01013   0.02440  -3.51418
    Y3        2.09983   0.00081  -0.01070   0.00690  -0.00366   2.09617
    Z3       -1.34079   0.00005   0.01308  -0.00483   0.00837  -1.33242
    X4        4.63300  -0.00777  -0.05362  -0.00961  -0.06300   4.57000
    Y4        2.27301  -0.00187  -0.01567  -0.00085  -0.01626   2.25675
    Z4        1.15658  -0.00031  -0.00739   0.00069  -0.00671   1.14988
[...]
     X         X                               X                                                                                     
     X         X                                                                                                                     
               X                                                                                                                     
               X                                                                                                                     
               X                                                                                                                     
               X                                                                                                                     
               X                                                                                                                     
               X                                                                                                                     
               X                                                                                                                     
               X                                                                                                                     
               X                                                                                                                     
               X                                                                                                                     
               X                                                                                                                     
               X                                                                                                                     
               X                                                                                                                     
               X                                                                                                                     
 
 ***** Axes restored to original set *****
 -------------------------------------------------------------------
 Center     Atomic                   Forces (Hartrees/Bohr)
 Number     Number              X              Y              Z
 -------------------------------------------------------------------
      1       32           0.000147706    0.000065725   -0.000079769
      2       32          -0.000020088   -0.000019388    0.000066075
      3       83           0.000006473   -0.000045619   -0.000096572
      4       50          -0.000142147   -0.000025303   -0.000150143
      5       83          -0.000120188   -0.000071803    0.000034713
      6       32           0.000120150    0.000060536    0.000173081
      7       83           0.000034302    0.000018388   -0.000078671
      8       83          -0.000008470    0.000086850    0.000027536
      9       50          -0.000017738   -0.000069385    0.000103749
 -------------------------------------------------------------------
 Cartesian Forces:  Max     0.000173081 RMS     0.000084616
 Force constants in Cartesian coordinates: 
                1             2             3             4             5 
      1  0.294023D-01
      2  0.577170D-03  0.587258D-01
      3 -0.702060D-02 -0.701460D-02  0.564315D-01
      4 -0.886849D-05 -0.329435D-02  0.361795D-02  0.648232D-01
      5 -0.273915D-02 -0.303026D-03  0.550669D-03 -0.206005D-02  0.502239D-01
      6 -0.515032D-02  0.401095D-02 -0.664443D-02  0.223734D-02 -0.167750D-01
      7 -0.796707D-02  0.290670D-02  0.374308D-02 -0.181222D-02  0.259264D-02
      8  0.525893D-02  0.222965D-03  0.150832D-02  0.421397D-02 -0.185662D-02
      9  0.498364D-02  0.196820D-02 -0.498721D-02 -0.882300D-02  0.181195D-02
     10 -0.247039D-02 -0.276800D-02 -0.133071D-02 -0.754579D-02 -0.815814D-02
     11 -0.344090D-02 -0.488075D-03 -0.116906D-02 -0.125976D-01 -0.120285D-01
     12 -0.383218D-02 -0.109728D-02 -0.787228D-02  0.864863D-02  0.161830D-01
     13 -0.699831D-02 -0.119027D-01  0.490360D-02 -0.184113D-02 -0.171390D-02
     14 -0.142888D-01 -0.167561D-01  0.186793D-02  0.181570D-02  0.607930D-03
     15  0.470450D-02  0.213606D-02 -0.252232D-02 -0.244299D-02 -0.566605D-02
     16 -0.468431D-02 -0.469125D-04  0.929679D-03 -0.579306D-02  0.126230D-01
     17 -0.209986D-02  0.755784D-03  0.593384D-03  0.127934D-01 -0.234038D-01
     18  0.109220D-02 -0.593427D-02 -0.604199D-02 -0.143970D-02  0.665381D-02
     19 -0.143671D-02  0.232110D-02 -0.136007D-02 -0.403669D-01 -0.518177D-02
     20  0.288383D-02  0.306258D-03  0.518240D-03 -0.508179D-02 -0.299812D-02
     21  0.840726D-02  0.581408D-02 -0.551684D-02 -0.985748D-02  0.119772D-02
     22 -0.419060D-02  0.847076D-02 -0.546975D-02 -0.350746D-02  0.292258D-02
     23  0.102248D-01 -0.191554D-01  0.120226D-01  0.458628D-02 -0.813098D-02
     24 -0.463078D-02  0.121524D-01 -0.147811D-01  0.683410D-02 -0.553055D-02
     25 -0.164604D-02  0.373627D-02  0.198682D-02 -0.394779D-02  0.171479D-02
     26  0.362392D-02 -0.233083D-01 -0.887750D-02 -0.375624D-03 -0.211078D-02
     27  0.144628D-02 -0.120355D-01 -0.806535D-02  0.122516D-02  0.157441D-02
                6             7             8             9            10 
      6  0.604476D-01
      7  0.118998D-03  0.691920D-01
      8  0.277799D-03 -0.171515D-02  0.751275D-01
      9 -0.469579D-02  0.101481D-01 -0.116962D-01  0.405551D-01
     10  0.649194D-02 -0.689275D-02 -0.374098D-02  0.521136D-03  0.646897D-01
     11  0.148864D-01  0.193703D-02 -0.881948D-03 -0.206921D-02  0.219175D-02
     12 -0.119205D-01 -0.170722D-02 -0.358332D-02 -0.328455D-02  0.230183D-02
     13 -0.110727D-02 -0.900747D-02  0.103667D-01  0.100510D-02 -0.379086D-02
     14  0.181536D-02  0.129178D-01 -0.364725D-01 -0.954635D-02 -0.775073D-03
     15 -0.377931D-02  0.151303D-02 -0.895851D-02  0.144756D-02  0.150486D-02
     16 -0.235129D-02 -0.229043D-02  0.238632D-02 -0.636490D-02 -0.195116D-01
     17  0.982846D-03  0.751100D-03 -0.282247D-02 -0.337756D-02  0.821755D-03
     18 -0.534396D-02 -0.431267D-02 -0.279597D-02 -0.735619D-02  0.859825D-02
     19 -0.545434D-02 -0.494595D-02 -0.383356D-03 -0.298013D-02 -0.597580D-02
     20  0.234564D-02  0.137435D-02 -0.149652D-01  0.219115D-01 -0.559559D-03
     21 -0.289101D-02 -0.493254D-02  0.199351D-01 -0.230672D-01 -0.328154D-02
     22  0.471298D-02 -0.347787D-02  0.602325D-02  0.413790D-02 -0.139735D-02
     23 -0.747998D-02  0.941842D-03  0.473613D-03  0.433307D-03 -0.124580D-02
     24 -0.228342D-01 -0.256873D-02  0.481478D-02  0.714115D-03 -0.309972D-02
     25  0.501954D-03 -0.327983D-01 -0.224097D-01 -0.262782D-02 -0.171051D-01
     26 -0.640390D-04 -0.217063D-01 -0.188253D-01  0.564359D-03  0.142340D-01
     27 -0.233830D-02 -0.200204D-02  0.498010D-03  0.674159D-03 -0.117060D-01
               11            12            13            14            15 
     11  0.721930D-01
     12 -0.661034D-02  0.352661D-01
     13 -0.647121D-02 -0.494742D-02  0.701087D-01
     14 -0.263065D-03  0.142635D-02  0.607697D-02  0.719573D-01
     15  0.122492D-02 -0.149971D-02  0.523146D-02  0.224326D-01  0.463070D-01
     16  0.422677D-02  0.126211D-01  0.126018D-02 -0.536345D-03 -0.590205D-02
     17 -0.214581D-02 -0.218652D-02  0.569656D-02 -0.424433D-02 -0.530154D-02
     18 -0.402030D-02 -0.375969D-02  0.207529D-02 -0.226541D-02 -0.501333D-02
     19 -0.359290D-03  0.157942D-02 -0.289789D-02 -0.584546D-04  0.100328D-01
     20 -0.411074D-02 -0.152594D-02 -0.107217D-02 -0.631720D-02 -0.681219D-02
     21 -0.680580D-03 -0.116158D-02  0.833357D-02 -0.116122D-01 -0.303147D-01
     22 -0.423041D-02 -0.227487D-02 -0.475425D-01 -0.199875D-02 -0.151058D-01
     23 -0.372225D-01 -0.130677D-01 -0.123305D-02 -0.513586D-02 -0.124867D-02
     24 -0.138197D-01 -0.913051D-03 -0.157721D-01 -0.234853D-02 -0.311577D-02
     25  0.187438D-01 -0.123893D-01  0.709221D-03 -0.315306D-02  0.464187D-03
     26 -0.150523D-01  0.104618D-01  0.252827D-03 -0.337620D-02  0.219339D-02
     27  0.122579D-01 -0.485467D-02  0.277756D-03 -0.176975D-02 -0.150938D-02
               16            17            18            19            20 
     16  0.422313D-01
     17  0.107136D-02  0.680113D-01
     18 -0.114291D-01  0.259515D-02  0.499281D-01
     19 -0.681320D-02 -0.150043D-01  0.156536D-02  0.665132D-01
     20 -0.186240D-01 -0.231829D-01  0.480137D-04  0.202219D-01  0.532947D-01
     21  0.301688D-02 -0.126962D-02 -0.146950D-02 -0.674801D-02 -0.142612D-01
     22 -0.333058D-02 -0.116278D-02 -0.634421D-03 -0.546053D-02  0.475337D-02
     23  0.729974D-03 -0.503170D-02 -0.259421D-02 -0.233922D-02  0.130247D-02
     24  0.515646D-02 -0.369550D-02 -0.266638D-02  0.301652D-02 -0.326445D-02
     25 -0.106832D-02 -0.286730D-02  0.448475D-02  0.138370D-02 -0.389592D-02
     26 -0.183017D-02 -0.793607D-02  0.831317D-02  0.783387D-03 -0.332921D-02
     27  0.432318D-02  0.116594D-01 -0.182771D-01  0.348410D-03  0.104039D-02
               21            22            23            24            25 
     21  0.687398D-01
     22  0.199630D-02  0.709117D-01
     23  0.130197D-02 -0.133765D-01  0.758667D-01
     24 -0.310781D-02  0.133727D-01  0.111876D-01  0.467634D-01
     25  0.306556D-02 -0.200476D-02  0.171170D-02 -0.230843D-02  0.564774D-01
     26 -0.425244D-03 -0.140147D-02 -0.296633D-02  0.503982D-03  0.641939D-02
     27 -0.121117D-02 -0.734962D-03 -0.554951D-03 -0.591367D-04  0.682227D-02
               26            27 
     26  0.769045D-01
     27 -0.126699D-01  0.356410D-01
 Leave Link  716 at Tue Mar  6 19:24:33 2018, MaxMem=   536870912 cpu:         0.1
 (Enter /share/apps//mg09/l103.exe)

 GradGradGradGradGradGradGradGradGradGradGradGradGradGradGradGradGradGrad
 Berny optimization.
 Search for a local minimum.
 Step number   1 out of a maximum of    2
 All quantities printed in internal units (Hartrees-Bohrs-Radians)
 Second derivative matrix not updated -- analytic derivatives used.
 ITU=  0
     Eigenvalues ---    0.00899   0.01537   0.02600   0.04035   0.04224
     Eigenvalues ---    0.04452   0.04999   0.05583   0.05636   0.06288
     Eigenvalues ---    0.06537   0.06979   0.08019   0.08149   0.09845
     Eigenvalues ---    0.10504   0.11947   0.12594   0.13417   0.14129
     Eigenvalues ---    0.15071
 Angle between quadratic step and forces=  37.70 degrees.
 Linear search not attempted -- first point.
 TrRot=  0.000186  0.000067  0.000135 -0.000013 -0.000006 -0.000013
 Variable       Old X    -DE/DX   Delta X   Delta X   Delta X     New X
                                 (Linear)    (Quad)   (Total)
    X1        1.69214   0.00015   0.00000   0.00429   0.00452   1.69666
    Y1        0.87887   0.00007   0.00000   0.00207   0.00209   0.88097
    Z1       -3.91526  -0.00008   0.00000  -0.00021  -0.00006  -3.91532
    X2        2.11602  -0.00002   0.00000  -0.00122  -0.00109   2.11493
    Y2       -1.20974  -0.00002   0.00000   0.00040   0.00041  -1.20933
    Z2        4.30022   0.00007   0.00000   0.00108   0.00123   4.30145
    X3       -3.53303   0.00001   0.00000  -0.00050  -0.00025  -3.53328
    Y3        2.09404  -0.00005   0.00000  -0.00328  -0.00313   2.09091
    Z3       -1.34508  -0.00010   0.00000  -0.00686  -0.00675  -1.35183
    X4        4.56290  -0.00014   0.00000  -0.00186  -0.00162   4.56128
    Y4        2.24473  -0.00003   0.00000  -0.00093  -0.00098   2.24375
    Z4        1.10431  -0.00015   0.00000  -0.00703  -0.00687   1.09744
    X5       -1.68015  -0.00012   0.00000  -0.00132  -0.00120  -1.68135
    Y5       -3.21331  -0.00007   0.00000  -0.00251  -0.00240  -3.21572
    Z5       -2.38447   0.00003   0.00000   0.00208   0.00221  -2.38226
    X6       -0.31323   0.00012   0.00000   0.00601   0.00625  -0.30697
    Y6        3.08245   0.00006   0.00000   0.00023   0.00030   3.08275
    Z6        3.51523   0.00017   0.00000   0.00583   0.00597   3.52120
    X7       -3.00342   0.00003   0.00000  -0.00160  -0.00147  -3.00489
    Y7       -1.58987   0.00002   0.00000   0.00346   0.00360  -1.58627
    Z7        3.02607  -0.00008   0.00000  -0.00213  -0.00201   3.02406
    X8        3.67495  -0.00001   0.00000  -0.00066  -0.00054   3.67440
    Y8       -2.97807   0.00009   0.00000  -0.00040  -0.00043  -2.97850
    Z8       -0.67751   0.00003   0.00000   0.00067   0.00082  -0.67669
    X9        0.79868  -0.00002   0.00000  -0.00493  -0.00460   0.79408
    Y9        5.49001  -0.00007   0.00000   0.00049   0.00053   5.49054
    Z9       -1.27878   0.00010   0.00000   0.00532   0.00546  -1.27331
         Item               Value     Threshold  Converged?
 Maximum Force            0.000173     0.000450     YES
 RMS     Force            0.000085     0.000300     YES
 Maximum Displacement     0.006870     0.001800     NO 
 RMS     Displacement     0.003290     0.001200     NO 
 Predicted change in Energy=-2.978514D-06
 GradGradGradGradGradGradGradGradGradGradGradGradGradGradGradGradGradGrad

 Leave Link  103 at Tue Mar  6 19:24:33 2018, MaxMem=   536870912 cpu:         0.1
 (Enter /share/apps//mg09/l9999.exe)
 1\1\GINC-COMPUTE-0-6\Freq\RPBE1PBE\def2TZVP\Bi4Ge3Sn2\RODRIGO\06-Mar-2
 018\0\\#P Geom=AllCheck Guess=TCheck SCRF=Check GenChk RPBE1PBE/def2TZ
 VP Freq\\01Final_coords.xyz_51\\0,1\Ge,0.8954414192,0.465079089,-2.071
 86661\Ge,1.1197482454,-0.6401671044,2.2755805019\Bi,-1.8695980715,1.10
 81198098,-0.7117875958\Sn,2.4145820798,1.1878595566,0.5843764786\Bi,-0
 .8890970097,-1.7004130463,-1.2618051282\Ge,-0.1657519686,1.6311604722,
 1.8601799932\Bi,-1.589338869,-0.8413227127,1.601328062\Bi,1.9446983904
 ,-1.5759246238,-0.3585245418\Sn,0.4226417848,2.9051855591,-0.676700160
 5\\Version=ES64L-G09RevD.01\State=1-A\HF=-7517.8142429\RMSD=5.875e-09\
 RMSF=8.462e-05\ZeroPoint=0.0058045\Thermal=0.0232848\Dipole=-0.5950225
 ,-0.4251958,-0.4524065\DipoleDeriv=0.0078783,-0.0650961,-0.0140441,-0.
 063809,-0.1143165,-0.0107698,-0.00434,0.042666,0.0200877,-0.1516461,-0
 .0472923,0.1056091,0.018538,-0.1214982,-0.024206,0.0290198,0.0009694,0
 .0360335,0.0394218,0.0105817,-0.0103195,-0.0322076,-0.0157372,-0.01442
 65,-0.0410799,0.0241688,0.0233179,0.2712773,0.1418027,0.0653316,0.1214
 632,-0.0402078,0.0593561,0.0307053,0.0274453,0.0356242,-0.0571245,0.05
 25335,0.0343016,0.0166335,-0.0129904,-0.01702,0.0376625,-0.0058921,0.0
 458772,-0.0575807,-0.0783416,-0.0065946,-0.0656611,-0.1093746,0.105348
 4,0.0507363,-0.0008399,-0.0033557,0.0078943,0.040782,-0.0858086,-0.032
 839,0.0008454,0.036509,-0.0191793,0.0315769,-0.0215521,0.0278319,-0.08
 77877,-0.0683496,0.0053548,-0.0324635,0.0186253,-0.0637665,-0.0000069,
 -0.1264461,-0.0879524,0.0328178,-0.020126,0.0325273,0.4457429,-0.15341
 65,-0.0197582,-0.1200875,-0.0095865\Polar=383.1902726,8.2440697,393.35
 56273,4.1601862,-4.5940994,356.6705582\PG=C01 [X(Bi4Ge3Sn2)]\NImag=0\\
 0.02940230,0.00057717,0.05872585,-0.00702060,-0.00701460,0.05643153,-0
 .00000887,-0.00329435,0.00361795,0.06482318,-0.00273915,-0.00030303,0.
 00055067,-0.00206005,0.05022393,-0.00515032,0.00401095,-0.00664443,0.0
 0223734,-0.01677497,0.06044759,-0.00796707,0.00290670,0.00374308,-0.00
 181222,0.00259264,0.00011900,0.06919204,0.00525893,0.00022297,0.001508
 32,0.00421397,-0.00185662,0.00027780,-0.00171515,0.07512749,0.00498364
 ,0.00196820,-0.00498721,-0.00882300,0.00181195,-0.00469579,0.01014808,
 -0.01169621,0.04055508,-0.00247039,-0.00276800,-0.00133071,-0.00754579
 ,-0.00815814,0.00649194,-0.00689275,-0.00374098,0.00052114,0.06468967,
 -0.00344090,-0.00048807,-0.00116906,-0.01259758,-0.01202855,0.01488639
 ,0.00193703,-0.00088195,-0.00206921,0.00219175,0.07219304,-0.00383218,
 -0.00109728,-0.00787228,0.00864863,0.01618301,-0.01192054,-0.00170722,
 -0.00358332,-0.00328455,0.00230183,-0.00661034,0.03526608,-0.00699831,
 -0.01190274,0.00490360,-0.00184113,-0.00171390,-0.00110727,-0.00900747
 ,0.01036671,0.00100510,-0.00379086,-0.00647121,-0.00494742,0.07010875,
 -0.01428878,-0.01675606,0.00186793,0.00181570,0.00060793,0.00181536,0.
 01291779,-0.03647249,-0.00954635,-0.00077507,-0.00026306,0.00142635,0.
 00607697,0.07195728,0.00470450,0.00213606,-0.00252232,-0.00244299,-0.0
 0566605,-0.00377931,0.00151303,-0.00895851,0.00144756,0.00150486,0.001
 22492,-0.00149971,0.00523146,0.02243261,0.04630698,-0.00468431,-0.0000
 4691,0.00092968,-0.00579306,0.01262300,-0.00235129,-0.00229043,0.00238
 632,-0.00636490,-0.01951161,0.00422677,0.01262110,0.00126018,-0.000536
 34,-0.00590205,0.04223134,-0.00209986,0.00075578,0.00059338,0.01279345
 ,-0.02340379,0.00098285,0.00075110,-0.00282247,-0.00337756,0.00082176,
 -0.00214581,-0.00218652,0.00569656,-0.00424433,-0.00530154,0.00107136,
 0.06801132,0.00109220,-0.00593427,-0.00604199,-0.00143970,0.00665381,-
 0.00534396,-0.00431267,-0.00279597,-0.00735619,0.00859825,-0.00402030,
 -0.00375969,0.00207529,-0.00226541,-0.00501333,-0.01142906,0.00259515,
 0.04992815,-0.00143671,0.00232110,-0.00136007,-0.04036688,-0.00518177,
 -0.00545434,-0.00494595,-0.00038336,-0.00298013,-0.00597580,-0.0003592
 9,0.00157942,-0.00289789,-0.00005845,0.01003284,-0.00681320,-0.0150042
 8,0.00156536,0.06651324,0.00288383,0.00030626,0.00051824,-0.00508179,-
 0.00299812,0.00234564,0.00137435,-0.01496522,0.02191153,-0.00055956,-0
 .00411074,-0.00152594,-0.00107217,-0.00631720,-0.00681219,-0.01862400,
 -0.02318294,0.00004801,0.02022188,0.05329471,0.00840726,0.00581408,-0.
 00551684,-0.00985748,0.00119772,-0.00289101,-0.00493254,0.01993510,-0.
 02306717,-0.00328154,-0.00068058,-0.00116158,0.00833357,-0.01161220,-0
 .03031472,0.00301688,-0.00126962,-0.00146950,-0.00674801,-0.01426123,0
 .06873981,-0.00419060,0.00847076,-0.00546975,-0.00350746,0.00292258,0.
 00471298,-0.00347787,0.00602325,0.00413790,-0.00139735,-0.00423041,-0.
 00227487,-0.04754250,-0.00199875,-0.01510584,-0.00333058,-0.00116278,-
 0.00063442,-0.00546053,0.00475337,0.00199630,0.07091165,0.01022483,-0.
 01915538,0.01202261,0.00458628,-0.00813098,-0.00747998,0.00094184,0.00
 047361,0.00043331,-0.00124580,-0.03722255,-0.01306771,-0.00123305,-0.0
 0513586,-0.00124867,0.00072997,-0.00503170,-0.00259421,-0.00233922,0.0
 0130247,0.00130197,-0.01337655,0.07586672,-0.00463078,0.01215236,-0.01
 478112,0.00683410,-0.00553055,-0.02283424,-0.00256873,0.00481478,0.000
 71412,-0.00309972,-0.01381973,-0.00091305,-0.01577208,-0.00234853,-0.0
 0311577,0.00515646,-0.00369550,-0.00266638,0.00301652,-0.00326445,-0.0
 0310781,0.01337267,0.01118763,0.04676340,-0.00164604,0.00373627,0.0019
 8682,-0.00394779,0.00171479,0.00050195,-0.03279827,-0.02240970,-0.0026
 2782,-0.01710512,0.01874384,-0.01238929,0.00070922,-0.00315306,0.00046
 419,-0.00106832,-0.00286730,0.00448475,0.00138370,-0.00389592,0.003065
 56,-0.00200476,0.00171170,-0.00230843,0.05647738,0.00362392,-0.0233083
 1,-0.00887750,-0.00037562,-0.00211078,-0.00006404,-0.02170631,-0.01882
 532,0.00056436,0.01423405,-0.01505230,0.01046176,0.00025283,-0.0033762
 0,0.00219339,-0.00183017,-0.00793607,0.00831317,0.00078339,-0.00332921
 ,-0.00042524,-0.00140147,-0.00296633,0.00050398,0.00641939,0.07690453,
 0.00144628,-0.01203551,-0.00806535,0.00122516,0.00157441,-0.00233830,-
 0.00200204,0.00049801,0.00067416,-0.01170604,0.01225792,-0.00485467,0.
 00027776,-0.00176975,-0.00150938,0.00432318,0.01165936,-0.01827710,0.0
 0034841,0.00104039,-0.00121117,-0.00073496,-0.00055495,-0.00005914,0.0
 0682227,-0.01266988,0.03564095\\-0.00014771,-0.00006572,0.00007977,0.0
 0002009,0.00001939,-0.00006608,-0.00000647,0.00004562,0.00009657,0.000
 14215,0.00002530,0.00015014,0.00012019,0.00007180,-0.00003471,-0.00012
 015,-0.00006054,-0.00017308,-0.00003430,-0.00001839,0.00007867,0.00000
 847,-0.00008685,-0.00002754,0.00001774,0.00006939,-0.00010375\\\@


 BLACK HOLES SUCK.
 Job cpu time:       0 days  4 hours 36 minutes 19.8 seconds.
 File lengths (MBytes):  RWF=    299 Int=      0 D2E=      0 Chk=     16 Scr=      1
 Normal termination of Gaussian 09 at Tue Mar  6 19:24:36 2018.
