 Entering Gaussian System, Link 0=/share/apps/mg09/g09
 Initial command:
 /share/apps//mg09/l1.exe "/state/partition1/gauss_tmp/Gau-11836.inp" -scrdir="/state/partition1/gauss_tmp/"
 Entering Link 1 = /share/apps//mg09/l1.exe PID=     11838.
  
 Copyright (c) 1988,1990,1992,1993,1995,1998,2003,2009,2013,
            Gaussian, Inc.  All Rights Reserved.
  
 This is part of the Gaussian(R) 09 program.  It is based on
 the Gaussian(R) 03 system (copyright 2003, Gaussian, Inc.),
 the Gaussian(R) 98 system (copyright 1998, Gaussian, Inc.),
 the Gaussian(R) 94 system (copyright 1995, Gaussian, Inc.),
 the Gaussian 92(TM) system (copyright 1992, Gaussian, Inc.),
 the Gaussian 90(TM) system (copyright 1990, Gaussian, Inc.),
 the Gaussian 88(TM) system (copyright 1988, Gaussian, Inc.),
 the Gaussian 86(TM) system (copyright 1986, Carnegie Mellon
 University), and the Gaussian 82(TM) system (copyright 1983,
 Carnegie Mellon University). Gaussian is a federally registered
 trademark of Gaussian, Inc.
  
 This software contains proprietary and confidential information,
 including trade secrets, belonging to Gaussian, Inc.
  
 This software is provided under written license and may be
 used, copied, transmitted, or stored only in accord with that
 written license.
  
 The following legend is applicable only to US Government
 contracts under FAR:
  
                    RESTRICTED RIGHTS LEGEND
  
 Use, reproduction and disclosure by the US Government is
 subject to restrictions as set forth in subparagraphs (a)
 and (c) of the Commercial Computer Software - Restricted
 Rights clause in FAR 52.227-19.
  
 Gaussian, Inc.
 340 Quinnipiac St., Bldg. 40, Wallingford CT 06492
  
  
 ---------------------------------------------------------------
 Warning -- This program may not be used in any manner that
 competes with the business of Gaussian, Inc. or will provide
 assistance to any competitor of Gaussian, Inc.  The licensee
 of this program is prohibited from giving any competitor of
 Gaussian, Inc. access to this program.  By using this program,
 the user acknowledges that Gaussian, Inc. is engaged in the
 business of creating and licensing software in the field of
 computational chemistry and represents and warrants to the
 licensee that it is not a competitor of Gaussian, Inc. and that
 it will not use this program in any manner prohibited above.
 ---------------------------------------------------------------
  

 Cite this work as:
 Gaussian 09, Revision D.01,
 M. J. Frisch, G. W. Trucks, H. B. Schlegel, G. E. Scuseria, 
 M. A. Robb, J. R. Cheeseman, G. Scalmani, V. Barone, B. Mennucci, 
 G. A. Petersson, H. Nakatsuji, M. Caricato, X. Li, H. P. Hratchian, 
 A. F. Izmaylov, J. Bloino, G. Zheng, J. L. Sonnenberg, M. Hada, 
 M. Ehara, K. Toyota, R. Fukuda, J. Hasegawa, M. Ishida, T. Nakajima, 
 Y. Honda, O. Kitao, H. Nakai, T. Vreven, J. A. Montgomery, Jr., 
 J. E. Peralta, F. Ogliaro, M. Bearpark, J. J. Heyd, E. Brothers, 
 K. N. Kudin, V. N. Staroverov, T. Keith, R. Kobayashi, J. Normand, 
 K. Raghavachari, A. Rendell, J. C. Burant, S. S. Iyengar, J. Tomasi, 
 M. Cossi, N. Rega, J. M. Millam, M. Klene, J. E. Knox, J. B. Cross, 
 V. Bakken, C. Adamo, J. Jaramillo, R. Gomperts, R. E. Stratmann, 
 O. Yazyev, A. J. Austin, R. Cammi, C. Pomelli, J. W. Ochterski, 
 R. L. Martin, K. Morokuma, V. G. Zakrzewski, G. A. Voth, 
 P. Salvador, J. J. Dannenberg, S. Dapprich, A. D. Daniels, 
 O. Farkas, J. B. Foresman, J. V. Ortiz, J. Cioslowski, 
 and D. J. Fox, Gaussian, Inc., Wallingford CT, 2013.
 
 ******************************************
 Gaussian 09:  ES64L-G09RevD.01 24-Apr-2013
                 6-Mar-2018 
 ******************************************
 %NProcShared=4
 Will use up to    4 processors via shared memory.
 %LindaWorkers=compute-0-6
 %chk=Isomer_46.chk
 %NProc=4
 Will use up to    4 processors via shared memory.
 %mem=4GB
 SetLPE:  input flags=" -vv -opt "Tsnet.Node.lindarsharg: ssh" "
 SetLPE:    new flags=" -vv -opt "Tsnet.Node.lindarsharg: ssh"  -nodelist 'compute-0-6.local'"
 Will use up to    1 processors via Linda.
 ----------------------------------------------------------------------
 #p PBE1PBE/Def2TZVP scf=(maxcycle=768) opt=(cartesian,maxcycle=512) fr
 eq
 ----------------------------------------------------------------------
 1/6=512,10=7,14=-1,18=10,26=3,38=1/1,3;
 2/12=2,17=6,18=5,29=2,40=1/2;
 3/5=44,7=101,11=2,16=1,25=1,30=1,71=1,74=-13/1,2,3;
 4//1;
 5/5=2,7=768,38=5/2;
 6/7=2,8=2,9=2,10=2,28=1/1;
 7/7=1,29=1/1,2,3,16;
 1/6=512,10=7,14=-1,18=10,26=3/3(2);
 2/29=1/2;
 99/12=1/99;
 2/29=1/2;
 3/5=44,7=101,11=2,16=1,25=1,30=1,71=1,74=-13/1,2,3;
 4/5=5,16=3,69=1/1;
 5/5=2,7=768,38=5/2;
 7/7=1/1,2,3,16;
 1/6=512,14=-1,18=10,26=3/3(-5);
 2/29=1/2;
 6/7=2,8=2,9=2,10=2,19=2,28=1/1;
 99/9=1,12=1/99;
 Leave Link    1 at Tue Mar  6 15:35:28 2018, MaxMem=   536870912 cpu:         0.2
 (Enter /share/apps//mg09/l101.exe)
 ---------------------
 01Final_coords.xyz_46
 ---------------------
 Symbolic Z-matrix:
 Charge =  0 Multiplicity = 1
 83                    2.33059   1.2402   -0.10224 
 83                    1.48392  -1.39704   1.13402 
 83                   -0.10235  -1.88269  -1.43783 
 32                    0.43177   1.24174   2.08565 
 83                   -1.5618   -1.13275   1.17564 
 50                   -2.22315   1.81467   1.12207 
 32                   -0.10528   2.62686  -0.66441 
 50                   -2.0357    0.53019  -1.70938 
 32                    0.75046   0.69569  -2.49972 
 
 NAtoms=      9 NQM=        9 NQMF=       0 NMMI=      0 NMMIF=      0
                NMic=       0 NMicF=      0.
                    Isotopes and Nuclear Properties:
 (Nuclear quadrupole moments (NQMom) in fm**2, nuclear magnetic moments (NMagM)
  in nuclear magnetons)

  Atom         1           2           3           4           5           6           7           8           9
 IAtWgt=         209         209         209          74         209         118          74         118          74
 AtmWgt= 208.9804000 208.9804000 208.9804000  73.9211788 208.9804000 117.9018000  73.9211788 117.9018000  73.9211788
 NucSpn=           9           9           9           0           9           0           0           0           0
 AtZEff=   0.0000000   0.0000000   0.0000000   0.0000000   0.0000000   0.0000000   0.0000000   0.0000000   0.0000000
 NQMom=  -51.6000000 -51.6000000 -51.6000000   0.0000000 -51.6000000   0.0000000   0.0000000   0.0000000   0.0000000
 NMagM=    4.1106000   4.1106000   4.1106000   0.0000000   4.1106000   0.0000000   0.0000000   0.0000000   0.0000000
 AtZNuc=  83.0000000  83.0000000  83.0000000  32.0000000  83.0000000  50.0000000  32.0000000  50.0000000  32.0000000
 Leave Link  101 at Tue Mar  6 15:35:28 2018, MaxMem=   536870912 cpu:         0.3
 (Enter /share/apps//mg09/l103.exe)

 GradGradGradGradGradGradGradGradGradGradGradGradGradGradGradGradGradGrad
 Berny optimization.
 Initialization pass.
 No Z-matrix variables, so optimization will use Cartesian coordinates.
 Trust Radius=3.00D-01 FncErr=1.00D-07 GrdErr=1.00D-06
 Number of steps in this run=    100 maximum allowed number of steps=    100.
 GradGradGradGradGradGradGradGradGradGradGradGradGradGradGradGradGradGrad

 Leave Link  103 at Tue Mar  6 15:35:28 2018, MaxMem=   536870912 cpu:         0.0
 (Enter /share/apps//mg09/l202.exe)
 ---------------------------------------------------------------------------------------------------
                            Z-MATRIX (ANGSTROMS AND DEGREES)
   CD    Cent   Atom    N1       Length/X        N2       Alpha/Y        N3        Beta/Z          J
 ---------------------------------------------------------------------------------------------------
      1      1  Bi       0   2.330586          1.240197         -0.102238
      2      2  Bi       0   1.483922         -1.397044          1.134021
      3      3  Bi       0  -0.102349         -1.882694         -1.437825
      4      4  Ge       0   0.431770          1.241743          2.085654
      5      5  Bi       0  -1.561800         -1.132752          1.175640
      6      6  Sn       0  -2.223146          1.814672          1.122070
      7      7  Ge       0  -0.105278          2.626856         -0.664408
      8      8  Sn       0  -2.035700          0.530190         -1.709377
      9      9  Ge       0   0.750457          0.695690         -2.499722
 ---------------------------------------------------------------------------------------------------
                         Z-Matrix orientation:                         
 ---------------------------------------------------------------------
 Center     Atomic      Atomic             Coordinates (Angstroms)
 Number     Number       Type             X           Y           Z
 ---------------------------------------------------------------------
      1         83           0        2.330586    1.240197   -0.102238
      2         83           0        1.483922   -1.397044    1.134021
      3         83           0       -0.102349   -1.882694   -1.437825
      4         32           0        0.431770    1.241743    2.085654
      5         83           0       -1.561800   -1.132752    1.175640
      6         50           0       -2.223146    1.814672    1.122070
      7         32           0       -0.105278    2.626856   -0.664408
      8         50           0       -2.035700    0.530190   -1.709377
      9         32           0        0.750457    0.695690   -2.499722
 ---------------------------------------------------------------------
                    Distance matrix (angstroms):
                    1          2          3          4          5
     1  Bi   0.000000
     2  Bi   3.033186   0.000000
     3  Bi   4.177968   3.060474   0.000000
     4  Ge   2.896960   2.995968   4.739440   0.000000
     5  Bi   4.734398   3.057451   3.085873   3.231203   0.000000
     6  Sn   4.750308   4.904856   4.972058   2.881895   3.021185
     7  Ge   2.858722   4.685261   4.575393   3.125668   4.431917
     8  Sn   4.706534   4.918016   3.103803   4.582246   3.363522
     9  Ge   2.922537   4.256947   2.915985   4.628759   4.711477
                    6          7          8          9
     6  Sn   0.000000
     7  Ge   2.887302   0.000000
     8  Sn   3.114823   3.035539   0.000000
     9  Ge   4.817864   2.798225   2.900811   0.000000
 Stoichiometry    Bi4Ge3Sn2
 Framework group  C1[X(Bi4Ge3Sn2)]
 Deg. of freedom    21
 Full point group                 C1      NOp   1
 Largest Abelian subgroup         C1      NOp   1
 Largest concise Abelian subgroup C1      NOp   1
                         Standard orientation:                         
 ---------------------------------------------------------------------
 Center     Atomic      Atomic             Coordinates (Angstroms)
 Number     Number       Type             X           Y           Z
 ---------------------------------------------------------------------
      1         83           0       -2.330587    1.240195    0.102238
      2         83           0       -1.483921   -1.397046   -1.134021
      3         83           0        0.102351   -1.882694    1.437825
      4         32           0       -0.431771    1.241743   -2.085654
      5         83           0        1.561801   -1.132750   -1.175640
      6         50           0        2.223144    1.814674   -1.122070
      7         32           0        0.105275    2.626856    0.664408
      8         50           0        2.035699    0.530192    1.709377
      9         32           0       -0.750458    0.695689    2.499722
 ---------------------------------------------------------------------
 Rotational constants (GHZ):      0.0988015      0.0912544      0.0835090
 Leave Link  202 at Tue Mar  6 15:35:28 2018, MaxMem=   536870912 cpu:         0.0
 (Enter /share/apps//mg09/l301.exe)
 Standard basis: def2TZVP (5D, 7F)
 Ernie: Thresh=  0.10000D-02 Tol=  0.10000D-05 Strict=F.
 There are   519 symmetry adapted cartesian basis functions of A   symmetry.
 There are   444 symmetry adapted basis functions of A   symmetry.
   444 basis functions,   963 primitive gaussians,   519 cartesian basis functions
   116 alpha electrons      116 beta electrons
       nuclear repulsion energy      3557.7162402299 Hartrees.
 IExCor= 1009 DFT=T Ex+Corr=PBE1PBE ExCW=0 ScaHFX=  0.250000
 ScaDFX=  0.750000  0.750000  1.000000  1.000000 ScalE2=  1.000000  1.000000
 IRadAn=      0 IRanWt=     -1 IRanGd=            0 ICorTp=0 IEmpDi=  4
 NAtoms=    9 NActive=    9 NUniq=    9 SFac= 1.00D+00 NAtFMM=   60 NAOKFM=F Big=F
 Integral buffers will be    131072 words long.
 Raffenetti 2 integral format.
 Two-electron integral symmetry is turned on.
 Leave Link  301 at Tue Mar  6 15:35:28 2018, MaxMem=   536870912 cpu:         0.2
 (Enter /share/apps//mg09/l302.exe)
 NPDir=0 NMtPBC=     1 NCelOv=     1 NCel=       1 NClECP=     1 NCelD=      1
         NCelK=      1 NCelE2=     1 NClLst=     1 CellRange=     0.0.
 One-electron integrals computed using PRISM.
   1 Symmetry operations used in ECPInt.
 ECPInt:  NShTT=   10440 NPrTT=   41973 LenC2=    9667 LenP2D=   27467.
 LDataN:  DoStor=T MaxTD1= 8 Len=  415
 NBasis=   444 RedAO= T EigKep=  1.08D-03  NBF=   444
 NBsUse=   444 1.00D-06 EigRej= -1.00D+00 NBFU=   444
 Precomputing XC quadrature grid using
 IXCGrd= 4 IRadAn=           0 IRanWt=          -1 IRanGd=           0 AccXCQ= 0.00D+00.
 Defaulting to unpruned grid for atomic number  83.
 Defaulting to unpruned grid for atomic number  50.
 Defaulting to unpruned grid for atomic number  83.
 Generated NRdTot=       0 NPtTot=           0 NUsed=           0 NTot=          32
 NSgBfM=   501   501   501   501   501 MxSgAt=     9 MxSgA2=     9.
 Leave Link  302 at Tue Mar  6 15:35:36 2018, MaxMem=   536870912 cpu:        30.9
 (Enter /share/apps//mg09/l303.exe)
 DipDrv:  MaxL=1.
 Leave Link  303 at Tue Mar  6 15:35:37 2018, MaxMem=   536870912 cpu:         0.6
 (Enter /share/apps//mg09/l401.exe)
 ExpMin= 4.62D-02 ExpMax= 4.66D+05 ExpMxC= 4.50D+03 IAcc=2 IRadAn=         4 AccDes= 0.00D+00
 Harris functional with IExCor= 1009 and IRadAn=       4 diagonalized for initial guess.
 HarFok:  IExCor= 1009 AccDes= 0.00D+00 IRadAn=         4 IDoV= 1 UseB2=F ITyADJ=14
 ICtDFT=  3500011 ScaDFX=  1.000000  1.000000  1.000000  1.000000
 Defaulting to unpruned grid for atomic number  83.
 Defaulting to unpruned grid for atomic number  83.
 Defaulting to unpruned grid for atomic number  83.
 Defaulting to unpruned grid for atomic number  83.
 FoFCou: FMM=F IPFlag=           0 FMFlag=      100000 FMFlg1=           0
         NFxFlg=           0 DoJE=T BraDBF=F KetDBF=T FulRan=T
         wScrn=  0.000000 ICntrl=     500 IOpCl=  0 I1Cent=   200000004 NGrid=           0
         NMat0=    1 NMatS0=      1 NMatT0=    0 NMatD0=    1 NMtDS0=    0 NMtDT0=    0
 Petite list used in FoFCou.
 Harris En= -7518.61675849226    
 JPrj=0 DoOrth=F DoCkMO=F.
 Leave Link  401 at Tue Mar  6 15:35:40 2018, MaxMem=   536870912 cpu:        12.5
 (Enter /share/apps//mg09/l502.exe)
 Closed shell SCF:
 Using DIIS extrapolation, IDIIS=  1040.
 Integral symmetry usage will be decided dynamically.
 IVT=     1410107 IEndB=     1410107 NGot=   536870912 MDV=   536322046
 LenX=   536322046 LenY=   536052166
 Requested convergence on RMS density matrix=1.00D-08 within 768 cycles.
 Requested convergence on MAX density matrix=1.00D-06.
 Requested convergence on             energy=1.00D-06.
 No special actions if energy rises.
 Fock matrices will be formed incrementally for  20 cycles.

 Cycle   1  Pass 1  IDiag  1:
 FoFJK:  IHMeth= 1 ICntrl=       0 DoSepK=F KAlg= 0 I1Cent=   0 FoldK=F
 IRaf= 880000000 NMat=   1 IRICut=       1 DoRegI=T DoRafI=F ISym2E= 0.
 FoFCou: FMM=F IPFlag=           0 FMFlag=      100000 FMFlg1=           0
         NFxFlg=           0 DoJE=F BraDBF=F KetDBF=F FulRan=T
         wScrn=  0.000000 ICntrl=       0 IOpCl=  0 I1Cent=           0 NGrid=           0
         NMat0=    1 NMatS0=      1 NMatT0=    0 NMatD0=    1 NMtDS0=    0 NMtDT0=    0
 Symmetry not used in FoFCou.
 Defaulting to unpruned grid for atomic number  83.
 Defaulting to unpruned grid for atomic number  83.
 Defaulting to unpruned grid for atomic number  83.
 Defaulting to unpruned grid for atomic number  83.
 E= -7517.15797647296    
 DIIS: error= 2.64D-02 at cycle   1 NSaved=   1.
 NSaved= 1 IEnMin= 1 EnMin= -7517.15797647296     IErMin= 1 ErrMin= 2.64D-02
 ErrMax= 2.64D-02  0.00D+00 EMaxC= 1.00D-01 BMatC= 1.52D+00 BMatP= 1.52D+00
 IDIUse=3 WtCom= 7.36D-01 WtEn= 2.64D-01
 Coeff-Com:  0.100D+01
 Coeff-En:   0.100D+01
 Coeff:      0.100D+01
 Gap=     0.155 Goal=   None    Shift=    0.000
 GapD=    0.155 DampG=1.000 DampE=0.500 DampFc=0.5000 IDamp=-1.
 Damping current iteration by 5.00D-01
 RMSDP=6.87D-03 MaxDP=3.33D-01              OVMax= 8.41D-01

 Cycle   2  Pass 1  IDiag  1:
 RMSU=  3.43D-03    CP:  1.01D+00
 E= -7516.40723086087     Delta-E=        0.750745612084 Rises=F Damp=T
 DIIS: error= 1.65D-02 at cycle   2 NSaved=   2.
 NSaved= 2 IEnMin= 1 EnMin= -7517.15797647296     IErMin= 2 ErrMin= 1.65D-02
 ErrMax= 1.65D-02  0.00D+00 EMaxC= 1.00D-01 BMatC= 5.37D-01 BMatP= 1.52D+00
 IDIUse=3 WtCom= 8.35D-01 WtEn= 1.65D-01
 Coeff-Com:  0.278D+00 0.722D+00
 Coeff-En:   0.716D+00 0.284D+00
 Coeff:      0.351D+00 0.649D+00
 Gap=    -0.005 Goal=   None    Shift=    0.000
 RMSDP=4.85D-03 MaxDP=2.00D-01 DE= 7.51D-01 OVMax= 8.18D-01

 Cycle   3  Pass 1  IDiag  1:
 RMSU=  3.63D-03    CP:  1.00D+00  6.20D-02
 E= -7514.65405994471     Delta-E=        1.753170916165 Rises=F Damp=F
 DIIS: error= 3.80D-02 at cycle   3 NSaved=   3.
 NSaved= 3 IEnMin= 1 EnMin= -7517.15797647296     IErMin= 2 ErrMin= 1.65D-02
 ErrMax= 3.80D-02  0.00D+00 EMaxC= 1.00D-01 BMatC= 2.33D+00 BMatP= 5.37D-01
 IDIUse=2 WtCom= 0.00D+00 WtEn= 1.00D+00
 Rare condition: small coef for last iteration:  0.000D+00
 Coeff-En:   0.569D+00 0.281D+00 0.149D+00
 Coeff:      0.569D+00 0.281D+00 0.149D+00
 Gap=     0.199 Goal=   None    Shift=    0.000
 RMSDP=5.61D-03 MaxDP=2.13D-01 DE= 1.75D+00 OVMax= 5.94D-01

 Cycle   4  Pass 1  IDiag  1:
 RMSU=  2.04D-03    CP:  1.01D+00  1.13D+00 -2.58D-02
 E= -7516.43241305364     Delta-E=       -1.778353108935 Rises=F Damp=F
 DIIS: error= 2.42D-02 at cycle   4 NSaved=   4.
 NSaved= 4 IEnMin= 1 EnMin= -7517.15797647296     IErMin= 2 ErrMin= 1.65D-02
 ErrMax= 2.42D-02  0.00D+00 EMaxC= 1.00D-01 BMatC= 1.16D+00 BMatP= 5.37D-01
 IDIUse=2 WtCom= 0.00D+00 WtEn= 1.00D+00
 EnCoef did     8 forward-backward iterations
 Coeff-En:   0.585D+00 0.000D+00 0.419D-01 0.373D+00
 Coeff:      0.585D+00 0.000D+00 0.419D-01 0.373D+00
 Gap=     0.116 Goal=   None    Shift=    0.000
 RMSDP=3.22D-03 MaxDP=1.31D-01 DE=-1.78D+00 OVMax= 3.97D-01

 Cycle   5  Pass 1  IDiag  1:
 RMSU=  1.37D-03    CP:  1.01D+00  4.25D-01  3.43D-01  5.49D-01
 E= -7517.60595845456     Delta-E=       -1.173545400919 Rises=F Damp=F
 DIIS: error= 8.94D-03 at cycle   5 NSaved=   5.
 NSaved= 5 IEnMin= 5 EnMin= -7517.60595845456     IErMin= 5 ErrMin= 8.94D-03
 ErrMax= 8.94D-03  0.00D+00 EMaxC= 1.00D-01 BMatC= 2.58D-01 BMatP= 5.37D-01
 IDIUse=3 WtCom= 9.11D-01 WtEn= 8.94D-02
 EnCoef did     5 forward-backward iterations
 Coeff-Com:  0.393D+00-0.375D+00-0.132D+00 0.426D+00 0.688D+00
 Coeff-En:   0.763D-01 0.000D+00 0.000D+00 0.159D+00 0.765D+00
 Coeff:      0.365D+00-0.341D+00-0.120D+00 0.402D+00 0.695D+00
 Gap=     0.136 Goal=   None    Shift=    0.000
 RMSDP=1.53D-03 MaxDP=6.24D-02 DE=-1.17D+00 OVMax= 1.74D-01

 Cycle   6  Pass 1  IDiag  1:
 RMSU=  6.31D-04    CP:  1.00D+00  4.59D-01  3.45D-02  6.46D-01  4.23D-01
 E= -7517.75726155153     Delta-E=       -0.151303096969 Rises=F Damp=F
 DIIS: error= 4.98D-03 at cycle   6 NSaved=   6.
 NSaved= 6 IEnMin= 6 EnMin= -7517.75726155153     IErMin= 6 ErrMin= 4.98D-03
 ErrMax= 4.98D-03  0.00D+00 EMaxC= 1.00D-01 BMatC= 4.76D-02 BMatP= 2.58D-01
 IDIUse=3 WtCom= 9.50D-01 WtEn= 4.98D-02
 Coeff-Com:  0.788D-01-0.241D-02-0.449D-01 0.718D-02 0.393D+00 0.569D+00
 Coeff-En:   0.000D+00 0.000D+00 0.000D+00 0.000D+00 0.263D+00 0.737D+00
 Coeff:      0.749D-01-0.229D-02-0.427D-01 0.682D-02 0.386D+00 0.577D+00
 Gap=     0.127 Goal=   None    Shift=    0.000
 RMSDP=7.76D-04 MaxDP=3.69D-02 DE=-1.51D-01 OVMax= 9.15D-02

 Cycle   7  Pass 1  IDiag  1:
 RMSU=  3.65D-04    CP:  1.00D+00  4.00D-01  1.24D-01  5.70D-01  6.91D-01
                    CP:  3.65D-01
 E= -7517.79728528686     Delta-E=       -0.040023735330 Rises=F Damp=F
 DIIS: error= 2.60D-03 at cycle   7 NSaved=   7.
 NSaved= 7 IEnMin= 7 EnMin= -7517.79728528686     IErMin= 7 ErrMin= 2.60D-03
 ErrMax= 2.60D-03  0.00D+00 EMaxC= 1.00D-01 BMatC= 1.09D-02 BMatP= 4.76D-02
 IDIUse=3 WtCom= 9.74D-01 WtEn= 2.60D-02
 Coeff-Com:  0.673D-02 0.224D-01-0.781D-02-0.202D-01 0.159D+00 0.410D+00
 Coeff-Com:  0.430D+00
 Coeff-En:   0.000D+00 0.000D+00 0.000D+00 0.000D+00 0.000D+00 0.248D+00
 Coeff-En:   0.752D+00
 Coeff:      0.656D-02 0.218D-01-0.761D-02-0.197D-01 0.155D+00 0.405D+00
 Coeff:      0.439D+00
 Gap=     0.124 Goal=   None    Shift=    0.000
 RMSDP=3.44D-04 MaxDP=1.48D-02 DE=-4.00D-02 OVMax= 4.55D-02

 Cycle   8  Pass 1  IDiag  1:
 RMSU=  1.75D-04    CP:  1.00D+00  4.09D-01  1.14D-01  5.77D-01  6.39D-01
                    CP:  6.28D-01  3.73D-01
 E= -7517.80665627200     Delta-E=       -0.009370985143 Rises=F Damp=F
 DIIS: error= 1.32D-03 at cycle   8 NSaved=   8.
 NSaved= 8 IEnMin= 8 EnMin= -7517.80665627200     IErMin= 8 ErrMin= 1.32D-03
 ErrMax= 1.32D-03  0.00D+00 EMaxC= 1.00D-01 BMatC= 2.73D-03 BMatP= 1.09D-02
 IDIUse=3 WtCom= 9.87D-01 WtEn= 1.32D-02
 Coeff-Com: -0.480D-02 0.161D-01-0.174D-02-0.140D-01 0.731D-01 0.252D+00
 Coeff-Com:  0.357D+00 0.323D+00
 Coeff-En:   0.000D+00 0.000D+00 0.000D+00 0.000D+00 0.000D+00 0.000D+00
 Coeff-En:   0.241D+00 0.759D+00
 Coeff:     -0.474D-02 0.159D-01-0.172D-02-0.139D-01 0.722D-01 0.248D+00
 Coeff:      0.355D+00 0.328D+00
 Gap=     0.122 Goal=   None    Shift=    0.000
 RMSDP=1.52D-04 MaxDP=6.00D-03 DE=-9.37D-03 OVMax= 1.79D-02

 Cycle   9  Pass 1  IDiag  1:
 RMSU=  5.42D-05    CP:  1.00D+00  4.14D-01  1.08D-01  5.81D-01  6.39D-01
                    CP:  5.94D-01  5.29D-01  2.87D-01
 E= -7517.80995326784     Delta-E=       -0.003296995837 Rises=F Damp=F
 DIIS: error= 3.94D-04 at cycle   9 NSaved=   9.
 NSaved= 9 IEnMin= 9 EnMin= -7517.80995326784     IErMin= 9 ErrMin= 3.94D-04
 ErrMax= 3.94D-04  0.00D+00 EMaxC= 1.00D-01 BMatC= 1.96D-04 BMatP= 2.73D-03
 IDIUse=3 WtCom= 9.96D-01 WtEn= 3.94D-03
 Coeff-Com: -0.341D-02 0.501D-02-0.735D-03-0.353D-02 0.222D-01 0.991D-01
 Coeff-Com:  0.172D+00 0.232D+00 0.477D+00
 Coeff-En:   0.000D+00 0.000D+00 0.000D+00 0.000D+00 0.000D+00 0.000D+00
 Coeff-En:   0.000D+00 0.469D-01 0.953D+00
 Coeff:     -0.339D-02 0.499D-02-0.732D-03-0.352D-02 0.221D-01 0.987D-01
 Coeff:      0.172D+00 0.231D+00 0.479D+00
 Gap=     0.122 Goal=   None    Shift=    0.000
 RMSDP=3.59D-05 MaxDP=2.53D-03 DE=-3.30D-03 OVMax= 4.15D-03

 Cycle  10  Pass 1  IDiag  1:
 RMSU=  1.76D-05    CP:  1.00D+00  4.15D-01  1.08D-01  5.85D-01  6.42D-01
                    CP:  6.00D-01  5.32D-01  4.04D-01  6.07D-01
 E= -7517.81014020703     Delta-E=       -0.000186939189 Rises=F Damp=F
 DIIS: error= 7.88D-05 at cycle  10 NSaved=  10.
 NSaved=10 IEnMin=10 EnMin= -7517.81014020703     IErMin=10 ErrMin= 7.88D-05
 ErrMax= 7.88D-05  0.00D+00 EMaxC= 1.00D-01 BMatC= 1.16D-05 BMatP= 1.96D-04
 IDIUse=1 WtCom= 1.00D+00 WtEn= 0.00D+00
 Coeff-Com: -0.159D-02 0.218D-02-0.239D-03-0.108D-02 0.285D-02 0.219D-01
 Coeff-Com:  0.473D-01 0.840D-01 0.252D+00 0.593D+00
 Coeff:     -0.159D-02 0.218D-02-0.239D-03-0.108D-02 0.285D-02 0.219D-01
 Coeff:      0.473D-01 0.840D-01 0.252D+00 0.593D+00
 Gap=     0.122 Goal=   None    Shift=    0.000
 RMSDP=1.31D-05 MaxDP=7.87D-04 DE=-1.87D-04 OVMax= 1.76D-03

 Cycle  11  Pass 1  IDiag  1:
 RMSU=  9.86D-06    CP:  1.00D+00  4.15D-01  1.08D-01  5.84D-01  6.44D-01
                    CP:  5.98D-01  5.36D-01  4.10D-01  6.79D-01  6.43D-01
 E= -7517.81014182979     Delta-E=       -0.000001622757 Rises=F Damp=F
 DIIS: error= 6.90D-05 at cycle  11 NSaved=  11.
 NSaved=11 IEnMin=11 EnMin= -7517.81014182979     IErMin=11 ErrMin= 6.90D-05
 ErrMax= 6.90D-05  0.00D+00 EMaxC= 1.00D-01 BMatC= 6.17D-06 BMatP= 1.16D-05
 IDIUse=1 WtCom= 1.00D+00 WtEn= 0.00D+00
 Coeff-Com: -0.101D-02 0.147D-02-0.116D-03-0.596D-03-0.774D-03 0.570D-02
 Coeff-Com:  0.160D-01 0.373D-01 0.135D+00 0.435D+00 0.372D+00
 Coeff:     -0.101D-02 0.147D-02-0.116D-03-0.596D-03-0.774D-03 0.570D-02
 Coeff:      0.160D-01 0.373D-01 0.135D+00 0.435D+00 0.372D+00
 Gap=     0.122 Goal=   None    Shift=    0.000
 RMSDP=8.80D-06 MaxDP=4.29D-04 DE=-1.62D-06 OVMax= 1.09D-03

 Cycle  12  Pass 1  IDiag  1:
 RMSU=  3.83D-06    CP:  1.00D+00  4.15D-01  1.08D-01  5.84D-01  6.44D-01
                    CP:  5.99D-01  5.38D-01  4.12D-01  6.80D-01  8.50D-01
                    CP:  3.02D-01
 E= -7517.81014828338     Delta-E=       -0.000006453596 Rises=F Damp=F
 DIIS: error= 3.76D-05 at cycle  12 NSaved=  12.
 NSaved=12 IEnMin=12 EnMin= -7517.81014828338     IErMin=12 ErrMin= 3.76D-05
 ErrMax= 3.76D-05  0.00D+00 EMaxC= 1.00D-01 BMatC= 1.86D-06 BMatP= 6.17D-06
 IDIUse=1 WtCom= 1.00D+00 WtEn= 0.00D+00
 Coeff-Com: -0.436D-03 0.648D-03-0.397D-05-0.784D-04-0.193D-02-0.178D-02
 Coeff-Com: -0.264D-02 0.260D-02 0.350D-01 0.185D+00 0.311D+00 0.472D+00
 Coeff:     -0.436D-03 0.648D-03-0.397D-05-0.784D-04-0.193D-02-0.178D-02
 Coeff:     -0.264D-02 0.260D-02 0.350D-01 0.185D+00 0.311D+00 0.472D+00
 Gap=     0.122 Goal=   None    Shift=    0.000
 RMSDP=3.53D-06 MaxDP=1.66D-04 DE=-6.45D-06 OVMax= 4.02D-04

 Cycle  13  Pass 1  IDiag  1:
 RMSU=  1.44D-06    CP:  1.00D+00  4.15D-01  1.08D-01  5.84D-01  6.44D-01
                    CP:  6.01D-01  5.38D-01  4.15D-01  6.85D-01  8.35D-01
                    CP:  5.24D-01  6.01D-01
 E= -7517.81015065056     Delta-E=       -0.000002367176 Rises=F Damp=F
 DIIS: error= 1.03D-05 at cycle  13 NSaved=  13.
 NSaved=13 IEnMin=13 EnMin= -7517.81015065056     IErMin=13 ErrMin= 1.03D-05
 ErrMax= 1.03D-05  0.00D+00 EMaxC= 1.00D-01 BMatC= 1.67D-07 BMatP= 1.86D-06
 IDIUse=1 WtCom= 1.00D+00 WtEn= 0.00D+00
 Coeff-Com: -0.148D-03 0.239D-03-0.328D-06-0.489D-05-0.886D-03-0.102D-02
 Coeff-Com: -0.330D-02-0.540D-02-0.294D-02 0.157D-01 0.992D-01 0.246D+00
 Coeff-Com:  0.652D+00
 Coeff:     -0.148D-03 0.239D-03-0.328D-06-0.489D-05-0.886D-03-0.102D-02
 Coeff:     -0.330D-02-0.540D-02-0.294D-02 0.157D-01 0.992D-01 0.246D+00
 Coeff:      0.652D+00
 Gap=     0.122 Goal=   None    Shift=    0.000
 RMSDP=1.25D-06 MaxDP=8.28D-05 DE=-2.37D-06 OVMax= 1.38D-04

 Cycle  14  Pass 1  IDiag  1:
 RMSU=  6.11D-07    CP:  1.00D+00  4.15D-01  1.08D-01  5.84D-01  6.44D-01
                    CP:  6.01D-01  5.39D-01  4.14D-01  6.94D-01  8.41D-01
                    CP:  5.34D-01  7.10D-01  6.89D-01
 E= -7517.81015086591     Delta-E=       -0.000000215352 Rises=F Damp=F
 DIIS: error= 2.25D-06 at cycle  14 NSaved=  14.
 NSaved=14 IEnMin=14 EnMin= -7517.81015086591     IErMin=14 ErrMin= 2.25D-06
 ErrMax= 2.25D-06  0.00D+00 EMaxC= 1.00D-01 BMatC= 1.34D-08 BMatP= 1.67D-07
 IDIUse=1 WtCom= 1.00D+00 WtEn= 0.00D+00
 Coeff-Com: -0.362D-04 0.715D-04-0.512D-06-0.905D-05-0.204D-03-0.157D-03
 Coeff-Com: -0.120D-02-0.319D-02-0.609D-02-0.140D-01 0.565D-02 0.504D-01
 Coeff-Com:  0.334D+00 0.634D+00
 Coeff:     -0.362D-04 0.715D-04-0.512D-06-0.905D-05-0.204D-03-0.157D-03
 Coeff:     -0.120D-02-0.319D-02-0.609D-02-0.140D-01 0.565D-02 0.504D-01
 Coeff:      0.334D+00 0.634D+00
 Gap=     0.122 Goal=   None    Shift=    0.000
 RMSDP=4.18D-07 MaxDP=2.46D-05 DE=-2.15D-07 OVMax= 3.97D-05

 Cycle  15  Pass 1  IDiag  1:
 RMSU=  1.95D-07    CP:  1.00D+00  4.15D-01  1.08D-01  5.84D-01  6.44D-01
                    CP:  6.01D-01  5.39D-01  4.14D-01  6.94D-01  8.49D-01
                    CP:  5.40D-01  7.12D-01  8.35D-01  6.73D-01
 E= -7517.81015088210     Delta-E=       -0.000000016193 Rises=F Damp=F
 DIIS: error= 1.07D-06 at cycle  15 NSaved=  15.
 NSaved=15 IEnMin=15 EnMin= -7517.81015088210     IErMin=15 ErrMin= 1.07D-06
 ErrMax= 1.07D-06  0.00D+00 EMaxC= 1.00D-01 BMatC= 1.87D-09 BMatP= 1.34D-08
 IDIUse=1 WtCom= 1.00D+00 WtEn= 0.00D+00
 Coeff-Com: -0.912D-06 0.275D-05-0.173D-05-0.295D-06 0.945D-05 0.903D-04
 Coeff-Com: -0.214D-03-0.112D-02-0.354D-02-0.108D-01-0.117D-01-0.541D-02
 Coeff-Com:  0.102D+00 0.359D+00 0.572D+00
 Coeff:     -0.912D-06 0.275D-05-0.173D-05-0.295D-06 0.945D-05 0.903D-04
 Coeff:     -0.214D-03-0.112D-02-0.354D-02-0.108D-01-0.117D-01-0.541D-02
 Coeff:      0.102D+00 0.359D+00 0.572D+00
 Gap=     0.122 Goal=   None    Shift=    0.000
 RMSDP=1.39D-07 MaxDP=7.52D-06 DE=-1.62D-08 OVMax= 1.50D-05

 Cycle  16  Pass 1  IDiag  1:
 RMSU=  6.27D-08    CP:  1.00D+00  4.15D-01  1.08D-01  5.84D-01  6.44D-01
                    CP:  6.01D-01  5.39D-01  4.14D-01  6.94D-01  8.50D-01
                    CP:  5.42D-01  7.19D-01  8.26D-01  8.05D-01  7.04D-01
 E= -7517.81015088363     Delta-E=       -0.000000001532 Rises=F Damp=F
 DIIS: error= 1.77D-07 at cycle  16 NSaved=  16.
 NSaved=16 IEnMin=16 EnMin= -7517.81015088363     IErMin=16 ErrMin= 1.77D-07
 ErrMax= 1.77D-07  0.00D+00 EMaxC= 1.00D-01 BMatC= 8.56D-11 BMatP= 1.87D-09
 IDIUse=1 WtCom= 1.00D+00 WtEn= 0.00D+00
 Coeff-Com:  0.213D-06 0.526D-06-0.356D-06-0.141D-05 0.158D-04 0.495D-04
 Coeff-Com: -0.129D-05-0.222D-03-0.103D-02-0.342D-02-0.546D-02-0.570D-02
 Coeff-Com:  0.220D-01 0.122D+00 0.270D+00 0.602D+00
 Coeff:      0.213D-06 0.526D-06-0.356D-06-0.141D-05 0.158D-04 0.495D-04
 Coeff:     -0.129D-05-0.222D-03-0.103D-02-0.342D-02-0.546D-02-0.570D-02
 Coeff:      0.220D-01 0.122D+00 0.270D+00 0.602D+00
 Gap=     0.122 Goal=   None    Shift=    0.000
 RMSDP=3.48D-08 MaxDP=2.26D-06 DE=-1.53D-09 OVMax= 4.14D-06

 Cycle  17  Pass 1  IDiag  1:
 RMSU=  2.24D-08    CP:  1.00D+00  4.15D-01  1.08D-01  5.84D-01  6.44D-01
                    CP:  6.01D-01  5.39D-01  4.14D-01  6.94D-01  8.50D-01
                    CP:  5.42D-01  7.20D-01  8.32D-01  8.01D-01  7.71D-01
                    CP:  7.53D-01
 E= -7517.81015088393     Delta-E=       -0.000000000291 Rises=F Damp=F
 DIIS: error= 9.35D-08 at cycle  17 NSaved=  17.
 NSaved=17 IEnMin=17 EnMin= -7517.81015088393     IErMin=17 ErrMin= 9.35D-08
 ErrMax= 9.35D-08  0.00D+00 EMaxC= 1.00D-01 BMatC= 1.42D-11 BMatP= 8.56D-11
 IDIUse=1 WtCom= 1.00D+00 WtEn= 0.00D+00
 Coeff-Com:  0.439D-06-0.478D-06-0.177D-06-0.415D-06 0.885D-05 0.198D-04
 Coeff-Com:  0.201D-04-0.212D-04-0.294D-03-0.112D-02-0.218D-02-0.338D-02
 Coeff-Com:  0.318D-02 0.384D-01 0.106D+00 0.343D+00 0.516D+00
 Coeff:      0.439D-06-0.478D-06-0.177D-06-0.415D-06 0.885D-05 0.198D-04
 Coeff:      0.201D-04-0.212D-04-0.294D-03-0.112D-02-0.218D-02-0.338D-02
 Coeff:      0.318D-02 0.384D-01 0.106D+00 0.343D+00 0.516D+00
 Gap=     0.122 Goal=   None    Shift=    0.000
 RMSDP=1.24D-08 MaxDP=9.28D-07 DE=-2.91D-10 OVMax= 1.26D-06

 Cycle  18  Pass 1  IDiag  1:
 RMSU=  7.18D-09    CP:  1.00D+00  4.15D-01  1.08D-01  5.84D-01  6.44D-01
                    CP:  6.01D-01  5.39D-01  4.14D-01  6.94D-01  8.50D-01
                    CP:  5.42D-01  7.20D-01  8.33D-01  8.08D-01  7.67D-01
                    CP:  8.40D-01  7.50D-01
 E= -7517.81015088402     Delta-E=       -0.000000000095 Rises=F Damp=F
 DIIS: error= 1.60D-08 at cycle  18 NSaved=  18.
 NSaved=18 IEnMin=18 EnMin= -7517.81015088402     IErMin=18 ErrMin= 1.60D-08
 ErrMax= 1.60D-08  0.00D+00 EMaxC= 1.00D-01 BMatC= 8.34D-13 BMatP= 1.42D-11
 IDIUse=1 WtCom= 1.00D+00 WtEn= 0.00D+00
 Coeff-Com:  0.119D-06-0.225D-06-0.145D-07 0.713D-07 0.127D-05-0.729D-07
 Coeff-Com:  0.122D-04 0.392D-04 0.681D-04 0.146D-03 0.656D-04-0.605D-03
 Coeff-Com: -0.320D-02-0.612D-02-0.243D-02 0.461D-01 0.206D+00 0.760D+00
 Coeff:      0.119D-06-0.225D-06-0.145D-07 0.713D-07 0.127D-05-0.729D-07
 Coeff:      0.122D-04 0.392D-04 0.681D-04 0.146D-03 0.656D-04-0.605D-03
 Coeff:     -0.320D-02-0.612D-02-0.243D-02 0.461D-01 0.206D+00 0.760D+00
 Gap=     0.122 Goal=   None    Shift=    0.000
 RMSDP=4.47D-09 MaxDP=1.65D-07 DE=-9.46D-11 OVMax= 7.47D-07

 SCF Done:  E(RPBE1PBE) =  -7517.81015088     A.U. after   18 cycles
            NFock= 18  Conv=0.45D-08     -V/T= 2.1285
 KE= 6.661935707969D+03 PE=-2.470682275722D+04 EE= 6.969360658135D+03
 Leave Link  502 at Tue Mar  6 15:53:14 2018, MaxMem=   536870912 cpu:      3994.3
 (Enter /share/apps//mg09/l601.exe)
 Copying SCF densities to generalized density rwf, IOpCl= 0 IROHF=0.

 **********************************************************************

            Population analysis using the SCF density.

 **********************************************************************

 Orbital symmetries:
       Occupied  (A) (A) (A) (A) (A) (A) (A) (A) (A) (A) (A) (A)
                 (A) (A) (A) (A) (A) (A) (A) (A) (A) (A) (A) (A)
                 (A) (A) (A) (A) (A) (A) (A) (A) (A) (A) (A) (A)
                 (A) (A) (A) (A) (A) (A) (A) (A) (A) (A) (A) (A)
                 (A) (A) (A) (A) (A) (A) (A) (A) (A) (A) (A) (A)
                 (A) (A) (A) (A) (A) (A) (A) (A) (A) (A) (A) (A)
                 (A) (A) (A) (A) (A) (A) (A) (A) (A) (A) (A) (A)
                 (A) (A) (A) (A) (A) (A) (A) (A) (A) (A) (A) (A)
                 (A) (A) (A) (A) (A) (A) (A) (A) (A) (A) (A) (A)
                 (A) (A) (A) (A) (A) (A) (A) (A)
       Virtual   (A) (A) (A) (A) (A) (A) (A) (A) (A) (A) (A) (A)
                 (A) (A) (A) (A) (A) (A) (A) (A) (A) (A) (A) (A)
                 (A) (A) (A) (A) (A) (A) (A) (A) (A) (A) (A) (A)
                 (A) (A) (A) (A) (A) (A) (A) (A) (A) (A) (A) (A)
                 (A) (A) (A) (A) (A) (A) (A) (A) (A) (A) (A) (A)
                 (A) (A) (A) (A) (A) (A) (A) (A) (A) (A) (A) (A)
                 (A) (A) (A) (A) (A) (A) (A) (A) (A) (A) (A) (A)
                 (A) (A) (A) (A) (A) (A) (A) (A) (A) (A) (A) (A)
                 (A) (A) (A) (A) (A) (A) (A) (A) (A) (A) (A) (A)
                 (A) (A) (A) (A) (A) (A) (A) (A) (A) (A) (A) (A)
                 (A) (A) (A) (A) (A) (A) (A) (A) (A) (A) (A) (A)
                 (A) (A) (A) (A) (A) (A) (A) (A) (A) (A) (A) (A)
                 (A) (A) (A) (A) (A) (A) (A) (A) (A) (A) (A) (A)
                 (A) (A) (A) (A) (A) (A) (A) (A) (A) (A) (A) (A)
                 (A) (A) (A) (A) (A) (A) (A) (A) (A) (A) (A) (A)
                 (A) (A) (A) (A) (A) (A) (A) (A) (A) (A) (A) (A)
                 (A) (A) (A) (A) (A) (A) (A) (A) (A) (A) (A) (A)
                 (A) (A) (A) (A) (A) (A) (A) (A) (A) (A) (A) (A)
                 (A) (A) (A) (A) (A) (A) (A) (A) (A) (A) (A) (A)
                 (A) (A) (A) (A) (A) (A) (A) (A) (A) (A) (A) (A)
                 (A) (A) (A) (A) (A) (A) (A) (A) (A) (A) (A) (A)
                 (A) (A) (A) (A) (A) (A) (A) (A) (A) (A) (A) (A)
                 (A) (A) (A) (A) (A) (A) (A) (A) (A) (A) (A) (A)
                 (A) (A) (A) (A) (A) (A) (A) (A) (A) (A) (A) (A)
                 (A) (A) (A) (A) (A) (A) (A) (A) (A) (A) (A) (A)
                 (A) (A) (A) (A) (A) (A) (A) (A) (A) (A) (A) (A)
                 (A) (A) (A) (A) (A) (A) (A) (A) (A) (A) (A) (A)
                 (A) (A) (A) (A)
 The electronic state is 1-A.
 Alpha  occ. eigenvalues -- -399.10439-399.09132-399.08615 -49.91983 -49.90702
 Alpha  occ. eigenvalues --  -49.90206 -44.40095 -44.40031 -44.39995 -44.38797
 Alpha  occ. eigenvalues --  -44.38749 -44.38730 -44.38288 -44.38251 -44.38239
 Alpha  occ. eigenvalues --   -6.28475  -6.27207  -6.26712  -6.02702  -6.02578
 Alpha  occ. eigenvalues --   -6.01674  -6.01266  -5.13334  -5.12976  -4.44000
 Alpha  occ. eigenvalues --   -4.43797  -4.43678  -4.42690  -4.42547  -4.42459
 Alpha  occ. eigenvalues --   -4.42172  -4.42036  -4.41997  -3.74992  -3.74901
 Alpha  occ. eigenvalues --   -3.74851  -3.74722  -3.74626  -3.74574  -3.74016
 Alpha  occ. eigenvalues --   -3.73866  -3.73612  -3.73546  -3.73356  -3.73250
 Alpha  occ. eigenvalues --   -3.46669  -3.46404  -3.46277  -3.46220  -3.46131
 Alpha  occ. eigenvalues --   -3.45927  -1.23432  -1.23383  -1.23275  -1.23124
 Alpha  occ. eigenvalues --   -1.23110  -1.22144  -1.22104  -1.22010  -1.21936
 Alpha  occ. eigenvalues --   -1.21895  -1.21596  -1.21583  -1.21530  -1.21417
 Alpha  occ. eigenvalues --   -1.21399  -1.09142  -1.08923  -1.08647  -1.08624
 Alpha  occ. eigenvalues --   -1.08429  -1.08345  -1.08302  -1.08269  -1.08146
 Alpha  occ. eigenvalues --   -1.08064  -1.07591  -1.07473  -1.07284  -1.07204
 Alpha  occ. eigenvalues --   -1.07194  -1.07142  -1.07096  -1.06972  -1.06853
 Alpha  occ. eigenvalues --   -1.06795  -1.02897  -1.02798  -1.02666  -1.02603
 Alpha  occ. eigenvalues --   -1.02479  -1.02413  -1.02357  -1.02263  -1.02099
 Alpha  occ. eigenvalues --   -1.02078  -0.67386  -0.61644  -0.58442  -0.57707
 Alpha  occ. eigenvalues --   -0.51314  -0.48126  -0.43086  -0.42388  -0.39585
 Alpha  occ. eigenvalues --   -0.29332  -0.28124  -0.26208  -0.25747  -0.25251
 Alpha  occ. eigenvalues --   -0.24631  -0.23396  -0.21942  -0.21569  -0.20824
 Alpha  occ. eigenvalues --   -0.20156
 Alpha virt. eigenvalues --   -0.07959  -0.07596  -0.07144  -0.06828  -0.06189
 Alpha virt. eigenvalues --   -0.05635  -0.05539  -0.04929  -0.03900  -0.02986
 Alpha virt. eigenvalues --   -0.02797  -0.01994  -0.01644   0.03804   0.05002
 Alpha virt. eigenvalues --    0.05115   0.06362   0.07783   0.08628   0.09137
 Alpha virt. eigenvalues --    0.09224   0.10049   0.10218   0.10443   0.10982
 Alpha virt. eigenvalues --    0.11266   0.11367   0.11724   0.12326   0.12997
 Alpha virt. eigenvalues --    0.13694   0.14843   0.15847   0.16273   0.17000
 Alpha virt. eigenvalues --    0.17984   0.18153   0.19937   0.20396   0.20667
 Alpha virt. eigenvalues --    0.21380   0.21894   0.22651   0.23256   0.24350
 Alpha virt. eigenvalues --    0.25313   0.25624   0.26288   0.26949   0.28681
 Alpha virt. eigenvalues --    0.28971   0.29607   0.30621   0.30884   0.31174
 Alpha virt. eigenvalues --    0.32108   0.32432   0.32988   0.33317   0.33901
 Alpha virt. eigenvalues --    0.34779   0.35082   0.36244   0.37642   0.37913
 Alpha virt. eigenvalues --    0.39097   0.40030   0.40284   0.41204   0.41650
 Alpha virt. eigenvalues --    0.42087   0.42514   0.43681   0.43872   0.44372
 Alpha virt. eigenvalues --    0.45283   0.47129   0.47354   0.48056   0.48874
 Alpha virt. eigenvalues --    0.49303   0.50140   0.50540   0.50710   0.51115
 Alpha virt. eigenvalues --    0.51838   0.53558   0.54958   0.55212   0.56226
 Alpha virt. eigenvalues --    0.56668   0.57484   0.58515   0.58636   0.59107
 Alpha virt. eigenvalues --    0.59718   0.60364   0.61127   0.61742   0.62301
 Alpha virt. eigenvalues --    0.63409   0.63963   0.64508   0.65514   0.65553
 Alpha virt. eigenvalues --    0.66081   0.67530   0.67835   0.68201   0.69533
 Alpha virt. eigenvalues --    0.71155   0.72058   0.73013   0.73465   0.74344
 Alpha virt. eigenvalues --    0.75428   0.76526   0.76974   0.77467   0.78602
 Alpha virt. eigenvalues --    0.79711   0.80697   0.80875   0.81804   0.82087
 Alpha virt. eigenvalues --    0.82939   0.83273   0.84281   0.85274   0.85517
 Alpha virt. eigenvalues --    0.86742   0.87272   0.87941   0.88912   0.89755
 Alpha virt. eigenvalues --    0.90229   0.90580   0.91212   0.92777   0.93676
 Alpha virt. eigenvalues --    0.93781   0.95178   0.95621   0.97117   0.97595
 Alpha virt. eigenvalues --    0.98394   0.98625   1.00713   1.01975   1.02660
 Alpha virt. eigenvalues --    1.04087   1.05131   1.06224   1.07030   1.07519
 Alpha virt. eigenvalues --    1.08996   1.10473   1.10780   1.12232   1.12789
 Alpha virt. eigenvalues --    1.13273   1.14859   1.16002   1.16095   1.16844
 Alpha virt. eigenvalues --    1.17851   1.18199   1.19114   1.19756   1.20356
 Alpha virt. eigenvalues --    1.20417   1.20991   1.21276   1.21628   1.22337
 Alpha virt. eigenvalues --    1.22594   1.22799   1.22963   1.23575   1.24583
 Alpha virt. eigenvalues --    1.24657   1.25310   1.25723   1.25975   1.27150
 Alpha virt. eigenvalues --    1.27303   1.28464   1.28512   1.29106   1.29827
 Alpha virt. eigenvalues --    1.30462   1.30881   1.31672   1.33423   1.34595
 Alpha virt. eigenvalues --    1.35060   1.35295   1.35621   1.37309   1.38575
 Alpha virt. eigenvalues --    1.39630   1.40299   1.42113   1.42361   1.43925
 Alpha virt. eigenvalues --    1.44597   1.46179   1.47222   1.48721   1.49309
 Alpha virt. eigenvalues --    1.50410   1.51550   1.52303   1.52511   1.53709
 Alpha virt. eigenvalues --    1.54631   1.56953   1.57929   1.59381   1.60878
 Alpha virt. eigenvalues --    1.62295   1.62746   1.69492   1.99099   2.07809
 Alpha virt. eigenvalues --    2.08142   2.08696   2.09148   2.14879   2.16203
 Alpha virt. eigenvalues --    2.17519   2.17827   2.18305   2.18623   2.20407
 Alpha virt. eigenvalues --    2.21626   2.22467   2.24484   2.24937   2.25818
 Alpha virt. eigenvalues --    2.28760   2.29244   2.30546   2.31712   2.32909
 Alpha virt. eigenvalues --    2.33962   2.35604   2.36918   2.38517   2.40308
 Alpha virt. eigenvalues --    2.41075   2.41828   2.42102   2.45808   2.46868
 Alpha virt. eigenvalues --    2.47748   2.49534   2.52518   2.53392   2.55637
 Alpha virt. eigenvalues --    2.56649   2.59223   2.61403   2.61883   2.67197
 Alpha virt. eigenvalues --    2.68117   2.70268   2.72858   2.73974   2.75078
 Alpha virt. eigenvalues --    2.77563   2.79144   2.79677   2.81544   2.82179
 Alpha virt. eigenvalues --    2.82948   2.84594   2.87406   2.90988   2.97060
 Alpha virt. eigenvalues --    3.23257   3.24554   3.28008   3.35629   3.38479
 Alpha virt. eigenvalues --    3.41877   3.92458   3.94237   3.98953   4.01054
 Alpha virt. eigenvalues --    4.03920   4.07056   4.08056   4.10079   4.13399
 Alpha virt. eigenvalues --    5.21997   5.33328   5.44471  35.35910  35.39281
 Alpha virt. eigenvalues --   35.40783  35.42641  35.44622  35.46706  35.47359
 Alpha virt. eigenvalues --   35.48522  35.52391  35.55452  35.60237  35.62508
 Alpha virt. eigenvalues --   35.84031  35.93992  36.02379  36.06759  36.20153
 Alpha virt. eigenvalues --   36.22230  36.96170  36.97781  36.99906  37.06806
 Alpha virt. eigenvalues --   37.08723  37.17132 113.58222 113.59177 120.20600
 Alpha virt. eigenvalues --  120.23457 120.24602 120.25342
          Condensed to atoms (all electrons):
               1          2          3          4          5          6
     1  Bi  22.343869   0.187496  -0.031038   0.156396  -0.025052  -0.022006
     2  Bi   0.187496  22.392112   0.174882   0.122458   0.163738  -0.017806
     3  Bi  -0.031038   0.174882  22.404081  -0.021251   0.155928  -0.017393
     4  Ge   0.156396   0.122458  -0.021251  31.534150   0.075479   0.181691
     5  Bi  -0.025052   0.163738   0.155928   0.075479  22.314942   0.180908
     6  Sn  -0.022006  -0.017806  -0.017393   0.181691   0.180908  21.419203
     7  Ge   0.158818  -0.018176  -0.021058   0.065631  -0.023680   0.167201
     8  Sn  -0.020169  -0.017831   0.128653  -0.017768   0.074351   0.135039
     9  Ge   0.185507  -0.021955   0.191566  -0.015658  -0.019393  -0.014116
               7          8          9
     1  Bi   0.158818  -0.020169   0.185507
     2  Bi  -0.018176  -0.017831  -0.021955
     3  Bi  -0.021058   0.128653   0.191566
     4  Ge   0.065631  -0.017768  -0.015658
     5  Bi  -0.023680   0.074351  -0.019393
     6  Sn   0.167201   0.135039  -0.014116
     7  Ge  31.491816   0.114532   0.131401
     8  Sn   0.114532  21.371547   0.151816
     9  Ge   0.131401   0.151816  31.569997
 Mulliken charges:
               1
     1  Bi   0.066178
     2  Bi   0.035080
     3  Bi   0.035631
     4  Ge  -0.081128
     5  Bi   0.102780
     6  Sn  -0.012722
     7  Ge  -0.066484
     8  Sn   0.079830
     9  Ge  -0.159165
 Sum of Mulliken charges =   0.00000
 Mulliken charges with hydrogens summed into heavy atoms:
               1
     1  Bi   0.066178
     2  Bi   0.035080
     3  Bi   0.035631
     4  Ge  -0.081128
     5  Bi   0.102780
     6  Sn  -0.012722
     7  Ge  -0.066484
     8  Sn   0.079830
     9  Ge  -0.159165
 Electronic spatial extent (au):  <R**2>=           6079.5092
 Charge=              0.0000 electrons
 Dipole moment (field-independent basis, Debye):
    X=             -0.2129    Y=             -1.8807    Z=             -0.9488  Tot=              2.1172
 Quadrupole moment (field-independent basis, Debye-Ang):
   XX=           -213.6157   YY=           -218.6723   ZZ=           -222.3022
   XY=              1.2918   XZ=              0.3902   YZ=             -0.0516
 Traceless Quadrupole moment (field-independent basis, Debye-Ang):
   XX=              4.5811   YY=             -0.4756   ZZ=             -4.1055
   XY=              1.2918   XZ=              0.3902   YZ=             -0.0516
 Octapole moment (field-independent basis, Debye-Ang**2):
  XXX=            -81.4788  YYY=           -144.7348  ZZZ=            -37.8679  XYY=            -25.4247
  XXY=            -46.5179  XXZ=            -15.4339  XZZ=            -18.8315  YZZ=            -54.2040
  YYZ=            -11.6519  XYZ=              2.1726
 Hexadecapole moment (field-independent basis, Debye-Ang**3):
 XXXX=          -3489.9832 YYYY=          -3303.3929 ZZZZ=          -3026.0992 XXXY=           -100.5280
 XXXZ=             -5.6703 YYYX=            -67.6625 YYYZ=             -4.3831 ZZZX=              0.9832
 ZZZY=             -8.7067 XXYY=          -1113.1573 XXZZ=          -1084.8813 YYZZ=          -1032.0311
 XXYZ=             29.0612 YYXZ=             -1.3350 ZZXY=            -23.4252
 N-N= 3.557716240230D+03 E-N=-2.470682274162D+04  KE= 6.661935707969D+03
 No NMR shielding tensors so no spin-rotation constants.
 Leave Link  601 at Tue Mar  6 15:53:15 2018, MaxMem=   536870912 cpu:         2.0
 (Enter /share/apps//mg09/l701.exe)
 Compute integral first derivatives.
 ... and contract with generalized density number  0.
   1 Symmetry operations used in ECPInt.
 ECPInt:  NShTT=   10440 NPrTT=   41973 LenC2=    9667 LenP2D=   27467.
 LDataN:  DoStor=T MaxTD1= 9 Len=  602
 Leave Link  701 at Tue Mar  6 15:53:38 2018, MaxMem=   536870912 cpu:        89.4
 (Enter /share/apps//mg09/l702.exe)
 L702 exits ... SP integral derivatives will be done elsewhere.
 Leave Link  702 at Tue Mar  6 15:53:39 2018, MaxMem=   536870912 cpu:         0.0
 (Enter /share/apps//mg09/l703.exe)
 Compute integral first derivatives, UseDBF=F ICtDFT=           0.
 Integral derivatives from FoFJK, PRISM(SPDF).
 Calling FoFJK, ICntrl=      2127 FMM=F ISym2X=0 I1Cent= 0 IOpClX= 0 NMat=1 NMatS=1 NMatT=0.
 FoFJK:  IHMeth= 1 ICntrl=    2127 DoSepK=F KAlg= 0 I1Cent=   0 FoldK=F
 IRaf=         0 NMat=   1 IRICut=       1 DoRegI=T DoRafI=F ISym2E= 0.
 FoFCou: FMM=F IPFlag=           0 FMFlag=      100000 FMFlg1=         800
         NFxFlg=           0 DoJE=F BraDBF=F KetDBF=F FulRan=T
         wScrn=  0.000000 ICntrl=    2127 IOpCl=  0 I1Cent=           0 NGrid=           0
         NMat0=    1 NMatS0=      1 NMatT0=    0 NMatD0=    1 NMtDS0=    0 NMtDT0=    0
 Symmetry not used in FoFCou.
 Defaulting to unpruned grid for atomic number  83.
 Defaulting to unpruned grid for atomic number  83.
 Defaulting to unpruned grid for atomic number  83.
 Defaulting to unpruned grid for atomic number  83.
 Leave Link  703 at Tue Mar  6 15:58:01 2018, MaxMem=   536870912 cpu:       956.8
 (Enter /share/apps//mg09/l716.exe)
 Dipole        =-8.37556872D-02-7.39908006D-01-3.73270379D-01
 ***** Axes restored to original set *****
 -------------------------------------------------------------------
 Center     Atomic                   Forces (Hartrees/Bohr)
 Number     Number              X              Y              Z
 -------------------------------------------------------------------
      1       83          -0.010865013   -0.000985721   -0.000294899
      2       83          -0.004749834    0.005544682   -0.002163391
      3       83           0.000303437    0.007935699    0.002237455
      4       32          -0.004190657   -0.002393587   -0.012519095
      5       83           0.004102291    0.006740434   -0.003628518
      6       50           0.011973790   -0.005282721   -0.006409629
      7       32          -0.001427231   -0.016195632    0.001954307
      8       50           0.012476858    0.003028923    0.007961912
      9       32          -0.007623641    0.001607924    0.012861859
 -------------------------------------------------------------------
 Cartesian Forces:  Max     0.016195632 RMS     0.007291549
 Force constants in Cartesian coordinates: 
                1             2             3             4             5 
      1  0.203733D+00
      2  0.684268D-02  0.120082D+00
      3  0.170874D-03 -0.119580D-01  0.144235D+00
      4 -0.295108D-01 -0.265927D-01  0.776556D-02  0.137627D+00
      5  0.760751D-02 -0.465776D-01  0.141845D-01 -0.249663D-01  0.150814D+00
      6 -0.700536D-02  0.181175D-01 -0.229185D-01  0.210110D-01 -0.123765D-01
      7 -0.231831D-02 -0.471713D-02 -0.452650D-03 -0.257327D-01 -0.907374D-02
      8 -0.398765D-02 -0.259215D-02 -0.492102D-02  0.966824D-02 -0.280371D-01
      9 -0.510047D-03 -0.538160D-02  0.490319D-02 -0.841894D-02 -0.173703D-01
     10 -0.514847D-01  0.472832D-02  0.416864D-01 -0.287572D-01  0.227721D-01
     11 -0.562609D-02 -0.189969D-01  0.242143D-02  0.794422D-02 -0.542248D-01
     12  0.347194D-02 -0.936997D-02 -0.611176D-01 -0.101377D-01 -0.629936D-03
     13 -0.265817D-02 -0.323467D-02 -0.173580D-02 -0.603361D-01 -0.142571D-01
     14 -0.637304D-02  0.297782D-02 -0.215693D-04  0.176054D-01 -0.270482D-01
     15  0.652522D-02  0.397697D-02  0.355857D-02 -0.800826D-02  0.638289D-02
     16 -0.471720D-02 -0.190747D-02  0.218240D-02  0.763578D-03  0.796363D-02
     17  0.309707D-02  0.520349D-02 -0.356099D-02  0.645964D-02  0.296323D-02
     18  0.469135D-02 -0.255227D-02  0.860628D-02  0.338275D-02 -0.331245D-03
     19 -0.688218D-01  0.428314D-01 -0.114743D-01  0.420356D-02 -0.192704D-03
     20  0.330258D-02 -0.461509D-01  0.882228D-02  0.707865D-02 -0.351680D-02
     21 -0.154223D-02  0.122604D-01 -0.242899D-01 -0.246270D-02 -0.707431D-04
     22 -0.442229D-02 -0.519043D-02 -0.683291D-03 -0.995019D-03  0.608778D-02
     23  0.127107D-02  0.568823D-02  0.235937D-02 -0.120979D-02  0.294288D-02
     24 -0.734838D-02 -0.108841D-02  0.467156D-02 -0.342161D-02  0.498769D-02
     25 -0.397994D-01 -0.127600D-01 -0.374592D-01  0.273781D-02  0.405875D-02
     26 -0.613413D-02 -0.196339D-01 -0.732599D-02  0.401266D-02  0.268401D-02
     27  0.154662D-02 -0.400462D-02 -0.576485D-01  0.289852D-03  0.522369D-02
                6             7             8             9            10 
      6  0.110286D+00
      7 -0.277471D-01  0.989379D-01
      8  0.702377D-02 -0.554705D-02  0.167270D+00
      9 -0.425167D-01 -0.147505D-02  0.171317D-01  0.135350D+00
     10  0.813585D-02  0.538543D-02 -0.123687D-02  0.171024D-04  0.169323D+00
     11 -0.328528D-01 -0.876783D-03 -0.286839D-03 -0.470623D-03 -0.506517D-02
     12 -0.323330D-01 -0.122983D-02 -0.998440D-02 -0.168932D-02  0.446738D-02
     13  0.142759D-01 -0.267090D-01 -0.803780D-02  0.134064D-01 -0.284676D-01
     14  0.393029D-02  0.120330D-01 -0.303166D-01 -0.195324D-01 -0.171366D-01
     15 -0.177493D-01  0.252650D-01  0.102365D-01 -0.448520D-01 -0.136679D-01
     16 -0.927228D-03  0.180769D-02  0.527580D-02  0.403698D-02 -0.566329D-01
     17  0.336508D-02 -0.220859D-03 -0.169125D-03 -0.515296D-02 -0.553837D-03
     18  0.431888D-02  0.834505D-03 -0.616841D-02  0.480074D-02 -0.313900D-01
     19 -0.197306D-02  0.569067D-02  0.171911D-02 -0.655796D-03 -0.164954D-01
     20  0.693142D-02 -0.138144D-02 -0.635700D-02 -0.710167D-02 -0.332643D-02
     21  0.365963D-02 -0.117256D-02  0.282004D-02  0.484262D-02 -0.359368D-02
     22 -0.593466D-02 -0.350435D-01  0.580877D-02 -0.152894D-01  0.818024D-03
     23  0.481496D-03  0.339592D-01 -0.388768D-01  0.931330D-02  0.112437D-02
     24  0.211891D-02 -0.762899D-03 -0.127481D-01 -0.252448D-01 -0.436007D-02
     25  0.164614D-03 -0.220182D-01 -0.366256D-02  0.888873D-02  0.631123D-02
     26  0.537973D-02 -0.241752D-01 -0.606341D-01  0.285646D-01 -0.130591D-02
     27 -0.486633D-02  0.674061D-02 -0.339014D-02 -0.355934D-01 -0.129512D-02
               11            12            13            14            15 
     11  0.154159D+00
     12  0.355503D-01  0.212307D+00
     13 -0.158925D-01  0.901469D-02  0.165410D+00
     14 -0.323992D-01  0.744027D-02  0.203060D-01  0.172710D+00
     15 -0.189749D-01 -0.307867D-01 -0.318956D-01 -0.211721D-01  0.143408D+00
     16  0.170949D-01  0.741213D-02 -0.271685D-01 -0.105070D-01  0.944338D-02
     17 -0.253053D-01 -0.109024D-01  0.250421D-01 -0.626262D-01 -0.844909D-02
     18  0.383399D-02 -0.370325D-01  0.357301D-02  0.143817D-01 -0.226625D-01
     19  0.465140D-02 -0.602533D-02  0.366656D-02 -0.125861D-02  0.259115D-02
     20 -0.345539D-01 -0.134142D-01 -0.765157D-02 -0.635228D-02  0.851280D-02
     21  0.212370D-01 -0.385448D-01  0.379280D-02  0.357402D-02  0.415125D-02
     22 -0.212918D-02 -0.106011D-01 -0.253955D-01 -0.114801D-01  0.922739D-02
     23  0.673160D-02 -0.137756D-02  0.663805D-02 -0.208045D-01  0.193257D-01
     24 -0.456052D-02 -0.461979D-02 -0.181351D-01  0.514053D-02 -0.331263D-01
     25 -0.100805D-03  0.362780D-02  0.165807D-02 -0.318907D-02  0.519604D-03
     26  0.487598D-02  0.268789D-02 -0.291257D-02  0.385914D-02  0.161087D-03
     27 -0.618389D-02 -0.618326D-02  0.770357D-02  0.625926D-02 -0.194116D-02
               16            17            18            19            20 
     16  0.154717D+00
     17 -0.281893D-01  0.132852D+00
     18 -0.228189D-01  0.133217D-01  0.124579D+00
     19 -0.440478D-01 -0.237397D-01  0.228610D-01  0.178888D+00
     20  0.106247D-01 -0.380261D-01 -0.487721D-02 -0.117776D-01  0.229052D+00
     21  0.142837D-01  0.207247D-01 -0.360953D-01 -0.867998D-02 -0.153323D-01
     22 -0.269670D-01  0.127494D-01  0.159647D-01 -0.354565D-01  0.552539D-02
     23 -0.325867D-02 -0.217737D-01 -0.195033D-01 -0.250455D-01 -0.423213D-01
     24 -0.214458D-01 -0.645322D-02 -0.456371D-01 -0.749794D-02  0.950016D-02
     25  0.224495D-02  0.535549D-02  0.290159D-02 -0.276277D-01 -0.239433D-02
     26  0.290346D-02  0.688156D-02  0.189499D-02  0.128122D-01 -0.517737D-01
     27  0.783333D-02 -0.289281D-02 -0.877125D-03  0.108542D-01  0.695869D-02
               21            22            23            24            25 
     21  0.151629D+00
     22 -0.139739D-01  0.188252D+00
     23 -0.139885D-01 -0.103542D-01  0.125543D+00
     24 -0.252828D-01  0.361608D-01  0.598014D-02  0.161175D+00
     25  0.133486D-01 -0.607899D-01 -0.312455D-02  0.268109D-01  0.137283D+00
     26 -0.312246D-01 -0.101755D-02 -0.171296D-01 -0.758300D-03  0.158171D-01
     27 -0.400695D-01 -0.148705D-01 -0.259073D-02 -0.340544D-01 -0.188026D-01
               26            27 
     26  0.130871D+00
     27  0.620543D-03  0.181234D+00
 Leave Link  716 at Tue Mar  6 15:58:01 2018, MaxMem=   536870912 cpu:         0.1
 (Enter /share/apps//mg09/l103.exe)

 GradGradGradGradGradGradGradGradGradGradGradGradGradGradGradGradGradGrad
 Berny optimization.
 Search for a local minimum.
 Step number   1 out of a maximum of  100
 All quantities printed in internal units (Hartrees-Bohrs-Radians)
 Second derivative matrix not updated -- first step.
 ITU=  0
     Eigenvalues ---    0.08147   0.11482   0.11838   0.13052   0.13860
     Eigenvalues ---    0.13931   0.14567   0.15367   0.16206   0.16674
     Eigenvalues ---    0.17939   0.22094   0.22562   0.23715   0.24656
     Eigenvalues ---    0.24824   0.26972   0.27665   0.28873   0.29773
     Eigenvalues ---    0.32423
 RFO step:  Lambda=-8.58795776D-03 EMin= 8.14721624D-02
 Linear search not attempted -- first point.
 TrRot= -0.001723 -0.001563  0.000353  0.000076  0.000071  0.000076
 MatCor failed.
 Variable       Old X    -DE/DX   Delta X   Delta X   Delta X     New X
                                 (Linear)    (Quad)   (Total)
    X1        4.40417  -0.01087   0.00000  -0.06144  -0.06353   4.34064
    Y1        2.34363  -0.00099   0.00000  -0.02141  -0.02231   2.32133
    Z1       -0.19320  -0.00029   0.00000  -0.00345  -0.00341  -0.19661
    X2        2.80421  -0.00475   0.00000  -0.03395  -0.03512   2.76908
    Y2       -2.64003   0.00554   0.00000   0.03759   0.03645  -2.60358
    Z2        2.14299  -0.00216   0.00000  -0.01947  -0.01932   2.12367
    X3       -0.19341   0.00030   0.00000   0.01023   0.00885  -0.18456
    Y3       -3.55778   0.00794   0.00000   0.05791   0.05632  -3.50146
    Z3       -2.71710   0.00224   0.00000   0.02601   0.02638  -2.69072
    X4        0.81593  -0.00419   0.00000  -0.02365  -0.02545   0.79047
    Y4        2.34655  -0.00239   0.00000  -0.01220  -0.01365   2.33291
    Z4        3.94131  -0.01252   0.00000  -0.07162  -0.07132   3.86999
    X5       -2.95137   0.00410   0.00000   0.03160   0.03035  -2.92102
    Y5       -2.14059   0.00674   0.00000   0.04224   0.04023  -2.10036
    Z5        2.22164  -0.00363   0.00000  -0.03212  -0.03156   2.19008
    X6       -4.20114   0.01197   0.00000   0.07779   0.07570  -4.12544
    Y6        3.42923  -0.00528   0.00000  -0.03333  -0.03553   3.39371
    Z6        2.12041  -0.00641   0.00000  -0.04687  -0.04623   2.07418
    X7       -0.19895  -0.00143   0.00000  -0.00887  -0.01142  -0.21037
    Y7        4.96404  -0.01620   0.00000  -0.08070  -0.08229   4.88175
    Z7       -1.25555   0.00195   0.00000   0.01291   0.01328  -1.24227
    X8       -3.84692   0.01248   0.00000   0.06774   0.06564  -3.78128
    Y8        1.00191   0.00303   0.00000   0.01376   0.01162   1.01353
    Z8       -3.23025   0.00796   0.00000   0.05336   0.05398  -3.17627
    X9        1.41816  -0.00762   0.00000  -0.04274  -0.04500   1.37316
    Y9        1.31466   0.00161   0.00000   0.01051   0.00915   1.32382
    Z9       -4.72379   0.01286   0.00000   0.07795   0.07820  -4.64559
         Item               Value     Threshold  Converged?
 Maximum Force            0.016196     0.000450     NO 
 RMS     Force            0.007292     0.000300     NO 
 Maximum Displacement     0.082291     0.001800     NO 
 RMS     Displacement     0.044168     0.001200     NO 
 Predicted change in Energy=-4.520457D-03
 Lowest energy point so far.  Saving SCF results.
 GradGradGradGradGradGradGradGradGradGradGradGradGradGradGradGradGradGrad

 Leave Link  103 at Tue Mar  6 15:58:01 2018, MaxMem=   536870912 cpu:         0.1
 (Enter /share/apps//mg09/l202.exe)
                          Input orientation:                          
 ---------------------------------------------------------------------
 Center     Atomic      Atomic             Coordinates (Angstroms)
 Number     Number       Type             X           Y           Z
 ---------------------------------------------------------------------
      1         83           0        2.296966    1.228393   -0.104041
      2         83           0        1.465336   -1.377754    1.123798
      3         83           0       -0.097667   -1.852893   -1.423865
      4         32           0        0.418301    1.234521    2.047911
      5         83           0       -1.545738   -1.111465    1.158939
      6         50           0       -2.183089    1.795872    1.097607
      7         32           0       -0.111323    2.583310   -0.657383
      8         50           0       -2.000966    0.536340   -1.680812
      9         32           0        0.726644    0.700533   -2.458340
 ---------------------------------------------------------------------
                    Distance matrix (angstroms):
                    1          2          3          4          5
     1  Bi   0.000000
     2  Bi   2.998533   0.000000
     3  Bi   4.119530   3.026437   0.000000
     4  Ge   2.856627   2.962135   4.674567   0.000000
     5  Bi   4.672947   3.023030   3.052458   3.186122   0.000000
     6  Sn   4.672995   4.835658   4.901050   2.825849   2.977010
     7  Ge   2.818127   4.620441   4.501952   3.068933   4.359809
     8  Sn   4.630050   4.852302   3.065453   4.499299   3.314616
     9  Ge   2.878761   4.206739   2.875693   4.548243   4.640233
                    6          7          8          9
     6  Sn   0.000000
     7  Ge   2.827058   0.000000
     8  Sn   3.056010   2.967869   0.000000
     9  Ge   4.723459   2.736875   2.841015   0.000000
 Stoichiometry    Bi4Ge3Sn2
 Framework group  C1[X(Bi4Ge3Sn2)]
 Deg. of freedom    21
 Full point group                 C1      NOp   1
 RotChk:  IX=0 Diff= 2.30D-02
 Largest Abelian subgroup         C1      NOp   1
 Largest concise Abelian subgroup C1      NOp   1
                         Standard orientation:                         
 ---------------------------------------------------------------------
 Center     Atomic      Atomic             Coordinates (Angstroms)
 Number     Number       Type             X           Y           Z
 ---------------------------------------------------------------------
      1         83           0       -2.282374    1.251797    0.093641
      2         83           0       -1.484515   -1.377279   -1.107435
      3         83           0        0.077555   -1.843696    1.442411
      4         32           0       -0.407913    1.212067   -2.061617
      5         83           0        1.529471   -1.147684   -1.150851
      6         50           0        2.201864    1.752256   -1.122102
      7         32           0        0.143098    2.583490    0.627981
      8         50           0        2.009946    0.525064    1.670096
      9         32           0       -0.713992    0.730490    2.450691
 ---------------------------------------------------------------------
 Rotational constants (GHZ):      0.1015917      0.0940134      0.0859224
 Leave Link  202 at Tue Mar  6 15:58:02 2018, MaxMem=   536870912 cpu:         0.0
 (Enter /share/apps//mg09/l301.exe)
 Standard basis: def2TZVP (5D, 7F)
 Ernie: Thresh=  0.10000D-02 Tol=  0.10000D-05 Strict=F.
 There are   519 symmetry adapted cartesian basis functions of A   symmetry.
 There are   444 symmetry adapted basis functions of A   symmetry.
   444 basis functions,   963 primitive gaussians,   519 cartesian basis functions
   116 alpha electrons      116 beta electrons
       nuclear repulsion energy      3614.8337757355 Hartrees.
 IExCor= 1009 DFT=T Ex+Corr=PBE1PBE ExCW=0 ScaHFX=  0.250000
 ScaDFX=  0.750000  0.750000  1.000000  1.000000 ScalE2=  1.000000  1.000000
 IRadAn=      0 IRanWt=     -1 IRanGd=            0 ICorTp=0 IEmpDi=  4
 NAtoms=    9 NActive=    9 NUniq=    9 SFac= 1.00D+00 NAtFMM=   60 NAOKFM=F Big=F
 Integral buffers will be    131072 words long.
 Raffenetti 2 integral format.
 Two-electron integral symmetry is turned on.
 Leave Link  301 at Tue Mar  6 15:58:02 2018, MaxMem=   536870912 cpu:         0.2
 (Enter /share/apps//mg09/l302.exe)
 NPDir=0 NMtPBC=     1 NCelOv=     1 NCel=       1 NClECP=     1 NCelD=      1
         NCelK=      1 NCelE2=     1 NClLst=     1 CellRange=     0.0.
 One-electron integrals computed using PRISM.
   1 Symmetry operations used in ECPInt.
 ECPInt:  NShTT=   10440 NPrTT=   41973 LenC2=    9703 LenP2D=   27668.
 LDataN:  DoStor=T MaxTD1= 8 Len=  415
 NBasis=   444 RedAO= T EigKep=  9.34D-04  NBF=   444
 NBsUse=   444 1.00D-06 EigRej= -1.00D+00 NBFU=   444
 Precomputing XC quadrature grid using
 IXCGrd= 4 IRadAn=           0 IRanWt=          -1 IRanGd=           0 AccXCQ= 0.00D+00.
 Defaulting to unpruned grid for atomic number  83.
 Defaulting to unpruned grid for atomic number  83.
 Defaulting to unpruned grid for atomic number  50.
 Generated NRdTot=       0 NPtTot=           0 NUsed=           0 NTot=          32
 NSgBfM=   506   506   506   506   506 MxSgAt=     9 MxSgA2=     9.
 Leave Link  302 at Tue Mar  6 15:58:12 2018, MaxMem=   536870912 cpu:        36.3
 (Enter /share/apps//mg09/l303.exe)
 DipDrv:  MaxL=1.
 Leave Link  303 at Tue Mar  6 15:58:12 2018, MaxMem=   536870912 cpu:         0.4
 (Enter /share/apps//mg09/l401.exe)
 Initial guess from the checkpoint file:  "Isomer_46.chk"
 B after Tr=     0.000000    0.000000    0.000000
         Rot=    0.999968    0.005408   -0.000764    0.005870 Ang=   0.92 deg.
 Guess basis will be translated and rotated to current coordinates.
 JPrj=2 DoOrth=T DoCkMO=T.
 Generating alternative initial guess.
 ExpMin= 4.62D-02 ExpMax= 4.66D+05 ExpMxC= 4.50D+03 IAcc=2 IRadAn=         4 AccDes= 0.00D+00
 Harris functional with IExCor= 1009 and IRadAn=       4 diagonalized for initial guess.
 HarFok:  IExCor= 1009 AccDes= 0.00D+00 IRadAn=         4 IDoV= 1 UseB2=F ITyADJ=14
 ICtDFT=  3500011 ScaDFX=  1.000000  1.000000  1.000000  1.000000
 Defaulting to unpruned grid for atomic number  83.
 Defaulting to unpruned grid for atomic number  83.
 Defaulting to unpruned grid for atomic number  83.
 Defaulting to unpruned grid for atomic number  83.
 FoFCou: FMM=F IPFlag=           0 FMFlag=      100000 FMFlg1=           0
         NFxFlg=           0 DoJE=T BraDBF=F KetDBF=T FulRan=T
         wScrn=  0.000000 ICntrl=     500 IOpCl=  0 I1Cent=   200000004 NGrid=           0
         NMat0=    1 NMatS0=      1 NMatT0=    0 NMatD0=    1 NMtDS0=    0 NMtDT0=    0
 Petite list used in FoFCou.
 Harris En= -7518.63006510192    
 Leave Link  401 at Tue Mar  6 15:58:17 2018, MaxMem=   536870912 cpu:        15.8
 (Enter /share/apps//mg09/l502.exe)
 Closed shell SCF:
 Using DIIS extrapolation, IDIIS=  1040.
 Integral symmetry usage will be decided dynamically.
 IVT=     1410107 IEndB=     1410107 NGot=   536870912 MDV=   536322046
 LenX=   536322046 LenY=   536052166
 Requested convergence on RMS density matrix=1.00D-08 within 768 cycles.
 Requested convergence on MAX density matrix=1.00D-06.
 Requested convergence on             energy=1.00D-06.
 No special actions if energy rises.
 Fock matrices will be formed incrementally for  20 cycles.

 Cycle   1  Pass 1  IDiag  1:
 FoFJK:  IHMeth= 1 ICntrl=       0 DoSepK=F KAlg= 0 I1Cent=   0 FoldK=F
 IRaf= 880000000 NMat=   1 IRICut=       1 DoRegI=T DoRafI=F ISym2E= 0.
 FoFCou: FMM=F IPFlag=           0 FMFlag=      100000 FMFlg1=           0
         NFxFlg=           0 DoJE=F BraDBF=F KetDBF=F FulRan=T
         wScrn=  0.000000 ICntrl=       0 IOpCl=  0 I1Cent=           0 NGrid=           0
         NMat0=    1 NMatS0=      1 NMatT0=    0 NMatD0=    1 NMtDS0=    0 NMtDT0=    0
 Symmetry not used in FoFCou.
 Defaulting to unpruned grid for atomic number  83.
 Defaulting to unpruned grid for atomic number  83.
 Defaulting to unpruned grid for atomic number  83.
 Defaulting to unpruned grid for atomic number  83.
 E= -7517.81494526370    
 DIIS: error= 5.28D-03 at cycle   1 NSaved=   1.
 NSaved= 1 IEnMin= 1 EnMin= -7517.81494526370     IErMin= 1 ErrMin= 5.28D-03
 ErrMax= 5.28D-03  0.00D+00 EMaxC= 1.00D-01 BMatC= 8.53D-03 BMatP= 8.53D-03
 IDIUse=3 WtCom= 9.47D-01 WtEn= 5.28D-02
 Coeff-Com:  0.100D+01
 Coeff-En:   0.100D+01
 Coeff:      0.100D+01
 Gap=     7.343 Goal=   None    Shift=    0.000
 GapD=    7.343 DampG=2.000 DampE=1.000 DampFc=2.0000 IDamp=-1.
 RMSDP=1.91D-04 MaxDP=5.71D-03              OVMax= 2.06D-02

 Cycle   2  Pass 1  IDiag  1:
 RMSU=  1.91D-04    CP:  1.00D+00
 E= -7517.81495226683     Delta-E=       -0.000007003126 Rises=F Damp=F
 DIIS: error= 1.30D-03 at cycle   2 NSaved=   2.
 NSaved= 2 IEnMin= 2 EnMin= -7517.81495226683     IErMin= 2 ErrMin= 1.30D-03
 ErrMax= 1.30D-03  0.00D+00 EMaxC= 1.00D-01 BMatC= 1.68D-03 BMatP= 8.53D-03
 IDIUse=3 WtCom= 9.87D-01 WtEn= 1.30D-02
 Coeff-Com:  0.203D+00 0.797D+00
 Coeff-En:   0.498D+00 0.502D+00
 Coeff:      0.207D+00 0.793D+00
 Gap=     0.124 Goal=   None    Shift=    0.000
 RMSDP=2.22D-04 MaxDP=9.24D-03 DE=-7.00D-06 OVMax= 1.76D-02

 Cycle   3  Pass 1  IDiag  1:
 RMSU=  2.02D-04    CP:  9.99D-01  5.41D-01
 E= -7517.81281022435     Delta-E=        0.002142042484 Rises=F Damp=F
 DIIS: error= 1.84D-03 at cycle   3 NSaved=   3.
 NSaved= 3 IEnMin= 2 EnMin= -7517.81495226683     IErMin= 2 ErrMin= 1.30D-03
 ErrMax= 1.84D-03  0.00D+00 EMaxC= 1.00D-01 BMatC= 4.02D-03 BMatP= 1.68D-03
 IDIUse=3 WtCom= 1.89D-01 WtEn= 8.11D-01
 Coeff-Com:  0.816D-02 0.606D+00 0.386D+00
 Coeff-En:   0.000D+00 0.669D+00 0.331D+00
 Coeff:      0.154D-02 0.657D+00 0.342D+00
 Gap=     0.126 Goal=   None    Shift=    0.000
 RMSDP=1.25D-04 MaxDP=5.39D-03 DE= 2.14D-03 OVMax= 1.30D-02

 Cycle   4  Pass 1  IDiag  1:
 RMSU=  4.78D-05    CP:  9.99D-01  7.91D-01  4.81D-01
 E= -7517.81610834190     Delta-E=       -0.003298117557 Rises=F Damp=F
 DIIS: error= 4.94D-04 at cycle   4 NSaved=   4.
 NSaved= 4 IEnMin= 4 EnMin= -7517.81610834190     IErMin= 4 ErrMin= 4.94D-04
 ErrMax= 4.94D-04  0.00D+00 EMaxC= 1.00D-01 BMatC= 2.42D-04 BMatP= 1.68D-03
 IDIUse=3 WtCom= 9.95D-01 WtEn= 4.94D-03
 Coeff-Com:  0.131D-03 0.437D+00 0.234D+00 0.329D+00
 Coeff-En:   0.000D+00 0.955D-01 0.000D+00 0.905D+00
 Coeff:      0.130D-03 0.435D+00 0.233D+00 0.332D+00
 Gap=     0.126 Goal=   None    Shift=    0.000
 RMSDP=4.26D-05 MaxDP=1.90D-03 DE=-3.30D-03 OVMax= 4.47D-03

 Cycle   5  Pass 1  IDiag  1:
 RMSU=  1.56D-05    CP:  9.99D-01  8.51D-01  4.44D-01  2.26D-01
 E= -7517.81631034118     Delta-E=       -0.000201999279 Rises=F Damp=F
 DIIS: error= 9.13D-05 at cycle   5 NSaved=   5.
 NSaved= 5 IEnMin= 5 EnMin= -7517.81631034118     IErMin= 5 ErrMin= 9.13D-05
 ErrMax= 9.13D-05  0.00D+00 EMaxC= 1.00D-01 BMatC= 1.81D-05 BMatP= 2.42D-04
 IDIUse=1 WtCom= 1.00D+00 WtEn= 0.00D+00
 Coeff-Com: -0.996D-03 0.225D+00 0.110D+00 0.246D+00 0.420D+00
 Coeff:     -0.996D-03 0.225D+00 0.110D+00 0.246D+00 0.420D+00
 Gap=     0.126 Goal=   None    Shift=    0.000
 RMSDP=1.14D-05 MaxDP=4.99D-04 DE=-2.02D-04 OVMax= 1.14D-03

 Cycle   6  Pass 1  IDiag  1:
 RMSU=  4.01D-06    CP:  9.99D-01  8.60D-01  4.34D-01  3.95D-01  5.99D-01
 E= -7517.81633025326     Delta-E=       -0.000019912080 Rises=F Damp=F
 DIIS: error= 1.11D-05 at cycle   6 NSaved=   6.
 NSaved= 6 IEnMin= 6 EnMin= -7517.81633025326     IErMin= 6 ErrMin= 1.11D-05
 ErrMax= 1.11D-05  0.00D+00 EMaxC= 1.00D-01 BMatC= 3.68D-07 BMatP= 1.81D-05
 IDIUse=1 WtCom= 1.00D+00 WtEn= 0.00D+00
 Coeff-Com: -0.436D-03 0.687D-01 0.339D-01 0.861D-01 0.187D+00 0.624D+00
 Coeff:     -0.436D-03 0.687D-01 0.339D-01 0.861D-01 0.187D+00 0.624D+00
 Gap=     0.126 Goal=   None    Shift=    0.000
 RMSDP=2.97D-06 MaxDP=2.18D-04 DE=-1.99D-05 OVMax= 3.87D-04

 Cycle   7  Pass 1  IDiag  1:
 RMSU=  2.57D-06    CP:  9.99D-01  8.62D-01  4.37D-01  3.90D-01  6.53D-01
                    CP:  8.13D-01
 E= -7517.81633018332     Delta-E=        0.000000069940 Rises=F Damp=F
 DIIS: error= 1.57D-05 at cycle   7 NSaved=   7.
 NSaved= 7 IEnMin= 6 EnMin= -7517.81633025326     IErMin= 6 ErrMin= 1.11D-05
 ErrMax= 1.57D-05  0.00D+00 EMaxC= 1.00D-01 BMatC= 3.61D-07 BMatP= 3.68D-07
 IDIUse=1 WtCom= 1.00D+00 WtEn= 0.00D+00
 Coeff-Com: -0.164D-03 0.120D-01 0.674D-02 0.230D-01 0.712D-01 0.513D+00
 Coeff-Com:  0.374D+00
 Coeff:     -0.164D-03 0.120D-01 0.674D-02 0.230D-01 0.712D-01 0.513D+00
 Coeff:      0.374D+00
 Gap=     0.126 Goal=   None    Shift=    0.000
 RMSDP=2.18D-06 MaxDP=9.04D-05 DE= 6.99D-08 OVMax= 2.53D-04

 Cycle   8  Pass 1  IDiag  1:
 RMSU=  1.04D-06    CP:  9.99D-01  8.64D-01  4.39D-01  3.92D-01  6.64D-01
                    CP:  1.05D+00  3.79D-01
 E= -7517.81633059445     Delta-E=       -0.000000411130 Rises=F Damp=F
 DIIS: error= 7.29D-06 at cycle   8 NSaved=   8.
 NSaved= 8 IEnMin= 8 EnMin= -7517.81633059445     IErMin= 8 ErrMin= 7.29D-06
 ErrMax= 7.29D-06  0.00D+00 EMaxC= 1.00D-01 BMatC= 7.35D-08 BMatP= 3.61D-07
 IDIUse=1 WtCom= 1.00D+00 WtEn= 0.00D+00
 Coeff-Com:  0.100D-04-0.146D-01-0.619D-02-0.998D-02-0.404D-02 0.234D+00
 Coeff-Com:  0.323D+00 0.477D+00
 Coeff:      0.100D-04-0.146D-01-0.619D-02-0.998D-02-0.404D-02 0.234D+00
 Coeff:      0.323D+00 0.477D+00
 Gap=     0.126 Goal=   None    Shift=    0.000
 RMSDP=7.99D-07 MaxDP=3.99D-05 DE=-4.11D-07 OVMax= 8.72D-05

 Cycle   9  Pass 1  IDiag  1:
 RMSU=  3.17D-07    CP:  9.99D-01  8.64D-01  4.40D-01  3.95D-01  6.73D-01
                    CP:  1.09D+00  5.38D-01  5.10D-01
 E= -7517.81633067756     Delta-E=       -0.000000083111 Rises=F Damp=F
 DIIS: error= 1.33D-06 at cycle   9 NSaved=   9.
 NSaved= 9 IEnMin= 9 EnMin= -7517.81633067756     IErMin= 9 ErrMin= 1.33D-06
 ErrMax= 1.33D-06  0.00D+00 EMaxC= 1.00D-01 BMatC= 3.35D-09 BMatP= 7.35D-08
 IDIUse=1 WtCom= 1.00D+00 WtEn= 0.00D+00
 Coeff-Com:  0.207D-04-0.959D-02-0.416D-02-0.763D-02-0.882D-02 0.895D-01
 Coeff-Com:  0.164D+00 0.284D+00 0.493D+00
 Coeff:      0.207D-04-0.959D-02-0.416D-02-0.763D-02-0.882D-02 0.895D-01
 Coeff:      0.164D+00 0.284D+00 0.493D+00
 Gap=     0.126 Goal=   None    Shift=    0.000
 RMSDP=2.13D-07 MaxDP=9.39D-06 DE=-8.31D-08 OVMax= 2.78D-05

 Cycle  10  Pass 1  IDiag  1:
 RMSU=  1.46D-07    CP:  9.99D-01  8.64D-01  4.40D-01  3.96D-01  6.78D-01
                    CP:  1.08D+00  5.58D-01  5.78D-01  7.15D-01
 E= -7517.81633068050     Delta-E=       -0.000000002934 Rises=F Damp=F
 DIIS: error= 1.01D-06 at cycle  10 NSaved=  10.
 NSaved=10 IEnMin=10 EnMin= -7517.81633068050     IErMin=10 ErrMin= 1.01D-06
 ErrMax= 1.01D-06  0.00D+00 EMaxC= 1.00D-01 BMatC= 7.39D-10 BMatP= 3.35D-09
 IDIUse=1 WtCom= 1.00D+00 WtEn= 0.00D+00
 Coeff-Com:  0.133D-04-0.537D-02-0.232D-02-0.437D-02-0.600D-02 0.415D-01
 Coeff-Com:  0.855D-01 0.156D+00 0.351D+00 0.384D+00
 Coeff:      0.133D-04-0.537D-02-0.232D-02-0.437D-02-0.600D-02 0.415D-01
 Coeff:      0.855D-01 0.156D+00 0.351D+00 0.384D+00
 Gap=     0.126 Goal=   None    Shift=    0.000
 RMSDP=1.09D-07 MaxDP=4.46D-06 DE=-2.93D-09 OVMax= 1.30D-05

 Cycle  11  Pass 1  IDiag  1:
 RMSU=  7.59D-08    CP:  9.99D-01  8.64D-01  4.40D-01  3.96D-01  6.79D-01
                    CP:  1.09D+00  5.58D-01  5.87D-01  8.16D-01  5.41D-01
 E= -7517.81633068091     Delta-E=       -0.000000000417 Rises=F Damp=F
 DIIS: error= 4.75D-07 at cycle  11 NSaved=  11.
 NSaved=11 IEnMin=11 EnMin= -7517.81633068091     IErMin=11 ErrMin= 4.75D-07
 ErrMax= 4.75D-07  0.00D+00 EMaxC= 1.00D-01 BMatC= 2.36D-10 BMatP= 7.39D-10
 IDIUse=1 WtCom= 1.00D+00 WtEn= 0.00D+00
 Coeff-Com:  0.136D-05 0.744D-04 0.540D-04-0.527D-05-0.116D-02-0.880D-02
 Coeff-Com: -0.807D-02-0.331D-02 0.765D-01 0.369D+00 0.576D+00
 Coeff:      0.136D-05 0.744D-04 0.540D-04-0.527D-05-0.116D-02-0.880D-02
 Coeff:     -0.807D-02-0.331D-02 0.765D-01 0.369D+00 0.576D+00
 Gap=     0.126 Goal=   None    Shift=    0.000
 RMSDP=5.22D-08 MaxDP=2.19D-06 DE=-4.17D-10 OVMax= 7.58D-06

 Cycle  12  Pass 1  IDiag  1:
 RMSU=  2.12D-08    CP:  9.99D-01  8.64D-01  4.40D-01  3.96D-01  6.79D-01
                    CP:  1.09D+00  5.61D-01  5.89D-01  8.49D-01  7.60D-01
                    CP:  7.22D-01
 E= -7517.81633068131     Delta-E=       -0.000000000400 Rises=F Damp=F
 DIIS: error= 6.27D-08 at cycle  12 NSaved=  12.
 NSaved=12 IEnMin=12 EnMin= -7517.81633068131     IErMin=12 ErrMin= 6.27D-08
 ErrMax= 6.27D-08  0.00D+00 EMaxC= 1.00D-01 BMatC= 8.55D-12 BMatP= 2.36D-10
 IDIUse=1 WtCom= 1.00D+00 WtEn= 0.00D+00
 Coeff-Com: -0.386D-06 0.462D-03 0.216D-03 0.326D-03-0.103D-03-0.751D-02
 Coeff-Com: -0.111D-01-0.142D-01 0.954D-02 0.164D+00 0.288D+00 0.571D+00
 Coeff:     -0.386D-06 0.462D-03 0.216D-03 0.326D-03-0.103D-03-0.751D-02
 Coeff:     -0.111D-01-0.142D-01 0.954D-02 0.164D+00 0.288D+00 0.571D+00
 Gap=     0.126 Goal=   None    Shift=    0.000
 RMSDP=1.25D-08 MaxDP=7.68D-07 DE=-4.00D-10 OVMax= 1.34D-06

 Cycle  13  Pass 1  IDiag  1:
 RMSU=  7.61D-09    CP:  9.99D-01  8.64D-01  4.40D-01  3.96D-01  6.79D-01
                    CP:  1.09D+00  5.61D-01  5.91D-01  8.59D-01  7.89D-01
                    CP:  7.74D-01  7.49D-01
 E= -7517.81633068141     Delta-E=       -0.000000000093 Rises=F Damp=F
 DIIS: error= 2.22D-08 at cycle  13 NSaved=  13.
 NSaved=13 IEnMin=13 EnMin= -7517.81633068141     IErMin=13 ErrMin= 2.22D-08
 ErrMax= 2.22D-08  0.00D+00 EMaxC= 1.00D-01 BMatC= 1.28D-12 BMatP= 8.55D-12
 IDIUse=1 WtCom= 1.00D+00 WtEn= 0.00D+00
 Coeff-Com: -0.398D-06 0.258D-03 0.118D-03 0.192D-03 0.114D-03-0.314D-02
 Coeff-Com: -0.523D-02-0.770D-02-0.571D-02 0.458D-01 0.845D-01 0.318D+00
 Coeff-Com:  0.573D+00
 Coeff:     -0.398D-06 0.258D-03 0.118D-03 0.192D-03 0.114D-03-0.314D-02
 Coeff:     -0.523D-02-0.770D-02-0.571D-02 0.458D-01 0.845D-01 0.318D+00
 Coeff:      0.573D+00
 Gap=     0.126 Goal=   None    Shift=    0.000
 RMSDP=4.37D-09 MaxDP=2.73D-07 DE=-9.28D-11 OVMax= 6.20D-07

 SCF Done:  E(RPBE1PBE) =  -7517.81633068     A.U. after   13 cycles
            NFock= 13  Conv=0.44D-08     -V/T= 2.1284
 KE= 6.662155319127D+03 PE=-2.482114304338D+04 EE= 7.026337617838D+03
 Leave Link  502 at Tue Mar  6 16:10:22 2018, MaxMem=   536870912 cpu:      2727.2
 (Enter /share/apps//mg09/l701.exe)
 Compute integral first derivatives.
 ... and contract with generalized density number  0.
   1 Symmetry operations used in ECPInt.
 ECPInt:  NShTT=   10440 NPrTT=   41973 LenC2=    9703 LenP2D=   27668.
 LDataN:  DoStor=T MaxTD1= 9 Len=  602
 Leave Link  701 at Tue Mar  6 16:10:44 2018, MaxMem=   536870912 cpu:        85.6
 (Enter /share/apps//mg09/l702.exe)
 L702 exits ... SP integral derivatives will be done elsewhere.
 Leave Link  702 at Tue Mar  6 16:10:44 2018, MaxMem=   536870912 cpu:         0.1
 (Enter /share/apps//mg09/l703.exe)
 Compute integral first derivatives, UseDBF=F ICtDFT=           0.
 Integral derivatives from FoFJK, PRISM(SPDF).
 Calling FoFJK, ICntrl=      2127 FMM=F ISym2X=0 I1Cent= 0 IOpClX= 0 NMat=1 NMatS=1 NMatT=0.
 FoFJK:  IHMeth= 1 ICntrl=    2127 DoSepK=F KAlg= 0 I1Cent=   0 FoldK=F
 IRaf=         0 NMat=   1 IRICut=       1 DoRegI=T DoRafI=F ISym2E= 0.
 FoFCou: FMM=F IPFlag=           0 FMFlag=      100000 FMFlg1=         800
         NFxFlg=           0 DoJE=F BraDBF=F KetDBF=F FulRan=T
         wScrn=  0.000000 ICntrl=    2127 IOpCl=  0 I1Cent=           0 NGrid=           0
         NMat0=    1 NMatS0=      1 NMatT0=    0 NMatD0=    1 NMtDS0=    0 NMtDT0=    0
 Symmetry not used in FoFCou.
 Defaulting to unpruned grid for atomic number  83.
 Defaulting to unpruned grid for atomic number  83.
 Defaulting to unpruned grid for atomic number  83.
 Defaulting to unpruned grid for atomic number  83.
 Leave Link  703 at Tue Mar  6 16:14:44 2018, MaxMem=   536870912 cpu:       865.2
 (Enter /share/apps//mg09/l716.exe)
 Dipole        =-1.31409158D-01-7.84047859D-01-3.72220480D-01
 ***** Axes restored to original set *****
 -------------------------------------------------------------------
 Center     Atomic                   Forces (Hartrees/Bohr)
 Number     Number              X              Y              Z
 -------------------------------------------------------------------
      1       83          -0.003342698    0.001589304   -0.000610967
      2       83          -0.000503693    0.001085300    0.001369502
      3       83           0.000142715    0.002269296   -0.001626609
      4       32          -0.002470524   -0.000938647   -0.007051346
      5       83           0.000024883    0.002247052   -0.000164240
      6       50           0.005027827   -0.000689182   -0.002603424
      7       32          -0.000654085   -0.009639237    0.000966608
      8       50           0.006150530    0.002142207    0.003562880
      9       32          -0.004374954    0.001933907    0.006157597
 -------------------------------------------------------------------
 Cartesian Forces:  Max     0.009639237 RMS     0.003494419
 Leave Link  716 at Tue Mar  6 16:14:44 2018, MaxMem=   536870912 cpu:         0.1
 (Enter /share/apps//mg09/l103.exe)

 GradGradGradGradGradGradGradGradGradGradGradGradGradGradGradGradGradGrad
 Berny optimization.
 Search for a local minimum.
 Step number   2 out of a maximum of  100
 All quantities printed in internal units (Hartrees-Bohrs-Radians)
 Update second derivatives using D2CorN and points    1    2
 DE= -6.18D-03 DEPred=-4.52D-03 R= 1.37D+00
 TightC=F SS=  1.41D+00  RLast= 2.30D-01 DXNew= 5.0454D-01 6.8852D-01
 Trust test= 1.37D+00 RLast= 2.30D-01 DXMaxT set to 5.05D-01
 ITU=  1  0
     Eigenvalues ---    0.07892   0.09530   0.11486   0.12023   0.13063
     Eigenvalues ---    0.13914   0.14327   0.14608   0.16159   0.16657
     Eigenvalues ---    0.17917   0.22021   0.22456   0.23652   0.24527
     Eigenvalues ---    0.24794   0.26952   0.27624   0.28868   0.29731
     Eigenvalues ---    0.32422
 RFO step:  Lambda=-5.78230161D-04 EMin= 7.89201376D-02
[...]
     X           X    X                          X         X                                                                         
     X           X    X                          X         X                                                                         
     X           X    X                          X         X                                                                         
     X           X    X                                    X                                                                         
     X           X                                         X                                                                         
     X           X                                         X                                                                         
     X           X                                         X                                                                         
     X           X                                         X                                                                         
     X           X                                                                                                                   
     X                                                                                                                               
     X                                                                                                                               
     X                                                                                                                               
     X                                                                                                                               
     X                                                                                                                               
     X                                                                                                                               
 
 ***** Axes restored to original set *****
 -------------------------------------------------------------------
 Center     Atomic                   Forces (Hartrees/Bohr)
 Number     Number              X              Y              Z
 -------------------------------------------------------------------
      1       83          -0.000025696    0.000007667   -0.000000292
      2       83           0.000001379   -0.000040384    0.000001411
      3       83          -0.000000735   -0.000000066   -0.000006022
      4       32           0.000029955    0.000074370   -0.000015021
      5       83          -0.000022937   -0.000111610    0.000041516
      6       50           0.000009377   -0.000010882   -0.000007020
      7       32           0.000003892    0.000002807   -0.000006701
      8       50           0.000027131    0.000058813   -0.000037625
      9       32          -0.000022366    0.000019285    0.000029754
 -------------------------------------------------------------------
 Cartesian Forces:  Max     0.000111610 RMS     0.000034125
 Force constants in Cartesian coordinates: 
                1             2             3             4             5 
      1  0.942189D-01
      2  0.430170D-02  0.523324D-01
      3 -0.222982D-02 -0.143782D-01  0.559179D-01
      4 -0.928279D-02 -0.898304D-02  0.544996D-02  0.740075D-01
      5 -0.109852D-01 -0.341603D-01  0.179790D-01 -0.756328D-02  0.691406D-01
      6  0.650149D-02  0.162497D-01 -0.655684D-02  0.166907D-01 -0.124980D-01
      7 -0.702004D-03 -0.724094D-02 -0.401059D-02 -0.121940D-01 -0.122200D-03
      8  0.180088D-03 -0.426376D-02 -0.206734D-02 -0.103873D-02 -0.455131D-02
      9 -0.353721D-04 -0.102948D-02 -0.231571D-02 -0.195890D-01 -0.520637D-02
     10 -0.206429D-01  0.391326D-03  0.166934D-01 -0.413820D-02  0.968070D-02
     11 -0.103025D-02  0.894618D-03 -0.182886D-02  0.113801D-01 -0.187544D-01
     12  0.173436D-01 -0.952089D-03 -0.222214D-01 -0.127683D-02 -0.600138D-02
     13 -0.171551D-02 -0.733595D-02  0.690077D-02 -0.437500D-01  0.507262D-02
     14 -0.105058D-02 -0.638663D-03  0.830845D-03  0.208425D-02 -0.465927D-02
     15 -0.552538D-03 -0.230578D-02 -0.650270D-03 -0.739942D-03  0.238352D-02
     16 -0.326913D-02  0.233857D-02  0.205880D-02 -0.212398D-02  0.437560D-03
     17 -0.347521D-03 -0.293901D-02  0.224338D-02  0.389324D-02 -0.722266D-03
     18  0.349521D-03  0.957381D-03 -0.111022D-02 -0.245838D-02  0.282910D-03
     19 -0.376173D-01  0.170500D-01 -0.615420D-02  0.255129D-02  0.584795D-02
     20  0.131241D-01 -0.613197D-02  0.520155D-02 -0.235250D-02 -0.799267D-02
     21 -0.578903D-02  0.361936D-02  0.163071D-02  0.292594D-02  0.448860D-02
     22 -0.486094D-02  0.134348D-02 -0.424900D-02 -0.490716D-02 -0.288322D-02
     23  0.531740D-04 -0.385242D-02 -0.207272D-02  0.409705D-02  0.300834D-02
     24 -0.106339D-02  0.126261D-02 -0.180951D-02 -0.219337D-02 -0.989197D-03
     25 -0.161283D-01 -0.186514D-02 -0.144593D-01 -0.162614D-03  0.515048D-03
     26 -0.424553D-02 -0.124083D-02 -0.590772D-02 -0.151713D-02 -0.130867D-02
     27 -0.145244D-01 -0.342355D-02 -0.228846D-01  0.119087D-02 -0.439115D-03
                6             7             8             9            10 
      6  0.457102D-01
      7 -0.172316D-01  0.393093D-01
      8 -0.788344D-02 -0.820413D-02  0.722358D-01
      9 -0.288507D-01  0.161766D-02  0.135091D-01  0.701301D-01
     10 -0.753995D-03 -0.167928D-02 -0.201322D-02  0.108336D-02  0.608070D-01
     11 -0.580631D-02 -0.419088D-02  0.266763D-03 -0.994593D-02 -0.112469D-01
     12 -0.171456D-02  0.105913D-02  0.982316D-03 -0.448498D-02 -0.273896D-02
     13 -0.183864D-05 -0.691914D-02  0.407928D-02  0.152857D-01 -0.405801D-02
     14  0.200183D-02  0.332272D-02 -0.746155D-02 -0.467878D-02 -0.481171D-02
     15  0.242900D-02  0.167528D-01 -0.731593D-02 -0.264779D-01 -0.574408D-04
     16  0.123186D-02 -0.470631D-03 -0.249013D-03 -0.173543D-02 -0.323411D-01
     17 -0.210167D-02  0.435536D-02 -0.848975D-03 -0.341341D-02  0.740885D-02
     18 -0.153335D-02  0.889675D-03 -0.937340D-03 -0.660601D-03 -0.114826D-01
     19 -0.949476D-03 -0.420834D-02 -0.111103D-02  0.116568D-02  0.586320D-03
     20 -0.302784D-03  0.659415D-03 -0.727408D-02  0.412417D-02  0.142297D-02
     21 -0.293167D-02 -0.190341D-02 -0.174366D-02 -0.184233D-03 -0.593445D-03
     22 -0.704260D-03 -0.898817D-02  0.148955D-01 -0.317880D-02 -0.865884D-03
     23  0.544749D-02  0.169560D-01 -0.190848D-01 -0.249738D-02 -0.224368D-02
     24 -0.293042D-02 -0.203865D-02 -0.984622D-03 -0.639144D-03 -0.608228D-02
     25 -0.478293D-02 -0.414768D-02 -0.653871D-02  0.538618D-02  0.233206D-02
     26  0.489317D-02 -0.553537D-02 -0.290181D-01  0.913804D-02  0.141168D-02
     27 -0.362171D-02  0.486495D-02  0.644088D-02 -0.651682D-02  0.393202D-02
               11            12            13            14            15 
     11  0.359622D-01
     12  0.120420D-01  0.575556D-01
     13 -0.755642D-02  0.138791D-03  0.694471D-01
     14 -0.404456D-02 -0.285440D-02 -0.832609D-03  0.610068D-01
     15 -0.390747D-02 -0.439539D-02 -0.192021D-01 -0.686632D-02  0.475624D-01
     16  0.885227D-02 -0.857067D-02 -0.380294D-02  0.679441D-02  0.225192D-02
     17 -0.193012D-02  0.135045D-02  0.716602D-02 -0.376531D-01  0.173136D-02
     18  0.300173D-02 -0.448575D-02  0.184571D-02  0.137892D-02 -0.121398D-02
     19  0.205536D-02 -0.233998D-02 -0.203610D-02 -0.560195D-02 -0.192048D-02
     20 -0.513105D-02 -0.361515D-03  0.140278D-02 -0.722703D-02  0.855564D-03
     21  0.300115D-02 -0.738427D-02 -0.321867D-02  0.456046D-02 -0.279153D-02
     22 -0.420055D-03 -0.480774D-03 -0.348352D-02  0.775719D-03 -0.154634D-02
     23 -0.477383D-02 -0.383600D-03 -0.434338D-03 -0.123503D-02  0.817692D-02
     24  0.102284D-02 -0.457468D-02 -0.139038D-02  0.620669D-02 -0.951230D-02
     25  0.215674D-02 -0.313427D-02 -0.368193D-02 -0.680250D-03  0.501416D-02
     26 -0.248958D-02 -0.382176D-02 -0.156137D-02  0.191235D-02  0.724814D-02
     27  0.242086D-02 -0.829460D-02 -0.357958D-03 -0.579252D-03 -0.495000D-02
               16            17            18            19            20 
     16  0.674339D-01
     17 -0.154097D-01  0.539687D-01
     18 -0.139002D-01  0.578617D-02  0.479614D-01
     19 -0.215446D-01 -0.788322D-02  0.194645D-01  0.754956D-01
     20 -0.324010D-02 -0.126252D-02  0.292600D-02 -0.579165D-02  0.617418D-01
     21  0.179189D-01  0.582829D-02 -0.135876D-01 -0.113312D-01  0.176041D-02
     22 -0.113063D-02  0.265235D-02  0.309602D-02 -0.116767D-01 -0.821016D-02
     23  0.143693D-02 -0.494398D-02 -0.124106D-01 -0.122979D-01 -0.127899D-01
     24  0.102617D-02 -0.112723D-01 -0.231894D-01 -0.654697D-02 -0.457872D-02
     25 -0.275086D-02 -0.183540D-02  0.219582D-02 -0.155016D-02  0.298515D-02
     26 -0.960958D-03 -0.366875D-02 -0.985201D-03  0.773240D-02 -0.139326D-01
     27 -0.281293D-03 -0.152269D-03 -0.218046D-02  0.861214D-02 -0.962468D-02
               21            22            23            24            25 
     21  0.417916D-01
     22 -0.720860D-02  0.680853D-01
     23 -0.791696D-02 -0.581457D-02  0.416003D-01
     24 -0.153630D-02  0.812055D-02  0.102635D-01  0.490958D-01
     25  0.919953D-02 -0.321723D-01 -0.175272D-02  0.101683D-01  0.582618D-01
     26 -0.135977D-01 -0.233900D-02  0.207134D-02 -0.930799D-03  0.701528D-02
     27 -0.150067D-01  0.615121D-02  0.139333D-02 -0.490402D-02 -0.958753D-02
               26            27 
     26  0.476748D-01
     27  0.396379D-02  0.683590D-01
 Leave Link  716 at Tue Mar  6 19:34:49 2018, MaxMem=   536870912 cpu:         0.1
 (Enter /share/apps//mg09/l103.exe)

 GradGradGradGradGradGradGradGradGradGradGradGradGradGradGradGradGradGrad
 Berny optimization.
 Search for a local minimum.
 Step number   1 out of a maximum of    2
 All quantities printed in internal units (Hartrees-Bohrs-Radians)
 Second derivative matrix not updated -- analytic derivatives used.
 ITU=  0
     Eigenvalues ---    0.00967   0.01750   0.02644   0.04112   0.04276
     Eigenvalues ---    0.05013   0.05364   0.05487   0.05585   0.06425
     Eigenvalues ---    0.06938   0.07087   0.08186   0.08594   0.09094
     Eigenvalues ---    0.10326   0.11519   0.11998   0.12956   0.14867
     Eigenvalues ---    0.15226
 Angle between quadratic step and forces=  37.39 degrees.
 Linear search not attempted -- first point.
 TrRot=  0.000018  0.000068 -0.000002  0.000001  0.000010  0.000001
 Variable       Old X    -DE/DX   Delta X   Delta X   Delta X     New X
                                 (Linear)    (Quad)   (Total)
    X1        4.34085  -0.00003   0.00000   0.00004   0.00006   4.34091
    Y1        2.32037   0.00001   0.00000  -0.00088  -0.00081   2.31956
    Z1       -0.21532   0.00000   0.00000  -0.00041  -0.00045  -0.21577
    X2        2.74709   0.00000   0.00000  -0.00076  -0.00072   2.74638
    Y2       -2.59389  -0.00004   0.00000  -0.00050  -0.00043  -2.59432
    Z2        2.16451   0.00000   0.00000   0.00077   0.00074   2.16525
    X3       -0.14886   0.00000   0.00000  -0.00035  -0.00035  -0.14921
    Y3       -3.46814   0.00000   0.00000   0.00004   0.00011  -3.46803
    Z3       -2.70675  -0.00001   0.00000   0.00046   0.00046  -2.70629
    X4        0.76413   0.00003   0.00000   0.00099   0.00104   0.76517
    Y4        2.33464   0.00007   0.00000   0.00310   0.00317   2.33781
    Z4        3.74919  -0.00002   0.00000  -0.00114  -0.00115   3.74805
    X5       -2.92733  -0.00002   0.00000  -0.00022  -0.00018  -2.92751
    Y5       -2.08470  -0.00011   0.00000  -0.00261  -0.00255  -2.08724
    Z5        2.17202   0.00004   0.00000   0.00054   0.00056   2.17258
    X6       -4.09435   0.00001   0.00000  -0.00037  -0.00034  -4.09469
    Y6        3.41174  -0.00001   0.00000  -0.00213  -0.00207   3.40968
    Z6        2.05352  -0.00001   0.00000   0.00007   0.00011   2.05363
    X7       -0.20757   0.00000   0.00000   0.00013   0.00013  -0.20744
    Y7        4.75650   0.00000   0.00000   0.00017   0.00024   4.75674
    Z7       -1.19791  -0.00001   0.00000   0.00094   0.00094  -1.19697
    X8       -3.73752   0.00003   0.00000   0.00074   0.00072  -3.73679
    Y8        1.01759   0.00006   0.00000   0.00210   0.00216   1.01975
    Z8       -3.12116  -0.00004   0.00000  -0.00127  -0.00123  -3.12239
    X9        1.31423  -0.00002   0.00000  -0.00034  -0.00037   1.31386
    Y9        1.36752   0.00002   0.00000   0.00010   0.00017   1.36770
    Z9       -4.59164   0.00003   0.00000   0.00004   0.00002  -4.59162
         Item               Value     Threshold  Converged?
 Maximum Force            0.000112     0.000450     YES
 RMS     Force            0.000034     0.000300     YES
 Maximum Displacement     0.003168     0.001800     NO 
 RMS     Displacement     0.001122     0.001200     YES
 Predicted change in Energy=-4.112544D-07
 GradGradGradGradGradGradGradGradGradGradGradGradGradGradGradGradGradGrad

 Leave Link  103 at Tue Mar  6 19:34:49 2018, MaxMem=   536870912 cpu:         0.1
 (Enter /share/apps//mg09/l9999.exe)
 1\1\GINC-COMPUTE-0-6\Freq\RPBE1PBE\def2TZVP\Bi4Ge3Sn2\RODRIGO\06-Mar-2
 018\0\\#P Geom=AllCheck Guess=TCheck SCRF=Check GenChk RPBE1PBE/def2TZ
 VP Freq\\01Final_coords.xyz_46\\0,1\Bi,2.2970801701,1.2278886481,-0.11
 39434393\Bi,1.4536997981,-1.3726278259,1.1454081541\Bi,-0.0787742508,-
 1.8352628607,-1.4323502763\Ge,0.4043598882,1.2354388456,1.9839882294\B
 i,-1.5490768568,-1.1031744637,1.1493813667\Sn,-2.1666392062,1.80541738
 48,1.0866763955\Ge,-0.1098386858,2.517032548,-0.6339088763\Sn,-1.97780
 81696,0.5384847707,-1.6516446826\Ge,0.695459313,0.7236609531,-2.429791
 8712\\Version=ES64L-G09RevD.01\State=1-A\HF=-7517.8182513\RMSD=7.180e-
 09\RMSF=3.413e-05\ZeroPoint=0.0058533\Thermal=0.023296\Dipole=0.136831
 4,-0.8047294,0.4064276\DipoleDeriv=0.0251648,0.0269401,0.0153957,0.090
 5852,0.0673193,0.0105294,0.009897,0.0163016,-0.1028906,-0.0443294,-0.0
 240304,-0.0164781,-0.0684716,-0.0343544,-0.0266262,0.0161773,-0.012665
 8,0.0480217,-0.0146996,0.0542031,0.0357732,-0.0275973,-0.0007393,0.082
 3559,-0.0085661,0.0182371,-0.076135,-0.0238889,0.0890374,-0.0242805,0.
 0894799,-0.0432244,0.003448,0.0236701,-0.0110257,-0.0123428,-0.0195964
 ,0.0618138,-0.0125583,0.0204582,0.0223599,-0.0080818,0.0299476,-0.0027
 005,0.0213369,0.2291726,-0.2403832,-0.2012439,-0.2020445,0.1221615,0.1
 122004,-0.1555422,0.1182395,0.0384544,-0.1914801,0.0507372,0.0525472,0
 .0624229,-0.0010587,-0.042371,0.0417362,-0.008114,-0.0910102,0.1902443
 ,-0.0114974,0.1955744,0.0404797,-0.025163,-0.0517046,0.1000607,-0.0754
 486,0.1415441,-0.1505873,-0.0068208,-0.0447296,-0.0053125,-0.1073009,-
 0.0797501,-0.0573806,-0.0428236,0.0330215\Polar=389.3274791,-12.027464
 1,375.6686089,0.1692071,3.1487224,368.3747743\PG=C01 [X(Bi4Ge3Sn2)]\NI
 mag=0\\0.09421885,0.00430170,0.05233238,-0.00222982,-0.01437816,0.0559
 1787,-0.00928279,-0.00898304,0.00544996,0.07400746,-0.01098518,-0.0341
 6034,0.01797903,-0.00756328,0.06914061,0.00650149,0.01624969,-0.006556
 84,0.01669074,-0.01249799,0.04571022,-0.00070200,-0.00724094,-0.004010
 59,-0.01219401,-0.00012220,-0.01723158,0.03930927,0.00018009,-0.004263
 76,-0.00206734,-0.00103873,-0.00455131,-0.00788344,-0.00820413,0.07223
 584,-0.00003537,-0.00102948,-0.00231571,-0.01958898,-0.00520637,-0.028
 85067,0.00161766,0.01350914,0.07013008,-0.02064285,0.00039133,0.016693
 36,-0.00413820,0.00968070,-0.00075400,-0.00167928,-0.00201322,0.001083
 36,0.06080695,-0.00103025,0.00089462,-0.00182886,0.01138014,-0.0187544
 2,-0.00580631,-0.00419088,0.00026676,-0.00994593,-0.01124692,0.0359621
 8,0.01734355,-0.00095209,-0.02222140,-0.00127683,-0.00600138,-0.001714
 56,0.00105913,0.00098232,-0.00448498,-0.00273896,0.01204198,0.05755563
 ,-0.00171551,-0.00733595,0.00690077,-0.04374998,0.00507262,-0.00000184
 ,-0.00691914,0.00407928,0.01528572,-0.00405801,-0.00755642,0.00013879,
 0.06944715,-0.00105058,-0.00063866,0.00083085,0.00208425,-0.00465927,0
 .00200183,0.00332272,-0.00746155,-0.00467878,-0.00481171,-0.00404456,-
 0.00285440,-0.00083261,0.06100684,-0.00055254,-0.00230578,-0.00065027,
 -0.00073994,0.00238352,0.00242900,0.01675281,-0.00731593,-0.02647792,-
 0.00005744,-0.00390747,-0.00439539,-0.01920215,-0.00686632,0.04756239,
 -0.00326913,0.00233857,0.00205880,-0.00212398,0.00043756,0.00123186,-0
 .00047063,-0.00024901,-0.00173543,-0.03234110,0.00885227,-0.00857067,-
 0.00380294,0.00679441,0.00225192,0.06743388,-0.00034752,-0.00293901,0.
 00224338,0.00389324,-0.00072227,-0.00210167,0.00435536,-0.00084897,-0.
 00341341,0.00740885,-0.00193012,0.00135045,0.00716602,-0.03765309,0.00
 173136,-0.01540967,0.05396871,0.00034952,0.00095738,-0.00111022,-0.002
 45838,0.00028291,-0.00153335,0.00088968,-0.00093734,-0.00066060,-0.011
 48262,0.00300173,-0.00448575,0.00184571,0.00137892,-0.00121398,-0.0139
 0024,0.00578617,0.04796138,-0.03761733,0.01705001,-0.00615420,0.002551
 29,0.00584795,-0.00094948,-0.00420834,-0.00111103,0.00116568,0.0005863
 2,0.00205536,-0.00233998,-0.00203610,-0.00560195,-0.00192048,-0.021544
 60,-0.00788322,0.01946450,0.07549560,0.01312410,-0.00613197,0.00520155
 ,-0.00235250,-0.00799267,-0.00030278,0.00065941,-0.00727408,0.00412417
 ,0.00142297,-0.00513105,-0.00036151,0.00140278,-0.00722703,0.00085556,
 -0.00324010,-0.00126252,0.00292600,-0.00579165,0.06174177,-0.00578903,
 0.00361936,0.00163071,0.00292594,0.00448860,-0.00293167,-0.00190341,-0
 .00174366,-0.00018423,-0.00059344,0.00300115,-0.00738427,-0.00321867,0
 .00456046,-0.00279153,0.01791889,0.00582829,-0.01358759,-0.01133120,0.
 00176041,0.04179162,-0.00486094,0.00134348,-0.00424900,-0.00490716,-0.
 00288322,-0.00070426,-0.00898817,0.01489547,-0.00317880,-0.00086588,-0
 .00042005,-0.00048077,-0.00348352,0.00077572,-0.00154634,-0.00113063,0
 .00265235,0.00309602,-0.01167667,-0.00821016,-0.00720860,0.06808530,0.
 00005317,-0.00385242,-0.00207272,0.00409705,0.00300834,0.00544749,0.01
 695602,-0.01908485,-0.00249738,-0.00224368,-0.00477383,-0.00038360,-0.
 00043434,-0.00123503,0.00817692,0.00143693,-0.00494398,-0.01241058,-0.
 01229787,-0.01278987,-0.00791696,-0.00581457,0.04160029,-0.00106339,0.
 00126261,-0.00180951,-0.00219337,-0.00098920,-0.00293042,-0.00203865,-
 0.00098462,-0.00063914,-0.00608228,0.00102284,-0.00457468,-0.00139038,
 0.00620669,-0.00951230,0.00102617,-0.01127230,-0.02318942,-0.00654697,
 -0.00457872,-0.00153630,0.00812055,0.01026350,0.04909579,-0.01612828,-
 0.00186514,-0.01445928,-0.00016261,0.00051505,-0.00478293,-0.00414768,
 -0.00653871,0.00538618,0.00233206,0.00215674,-0.00313427,-0.00368193,-
 0.00068025,0.00501416,-0.00275086,-0.00183540,0.00219582,-0.00155016,0
 .00298515,0.00919953,-0.03217232,-0.00175272,0.01016833,0.05826179,-0.
 00424553,-0.00124083,-0.00590772,-0.00151713,-0.00130867,0.00489317,-0
 .00553537,-0.02901808,0.00913804,0.00141168,-0.00248958,-0.00382176,-0
 .00156137,0.00191235,0.00724814,-0.00096096,-0.00366875,-0.00098520,0.
 00773240,-0.01393257,-0.01359765,-0.00233900,0.00207134,-0.00093080,0.
 00701528,0.04767478,-0.01452442,-0.00342355,-0.02288464,0.00119087,-0.
 00043912,-0.00362171,0.00486495,0.00644088,-0.00651682,0.00393202,0.00
 242086,-0.00829460,-0.00035796,-0.00057925,-0.00495000,-0.00028129,-0.
 00015227,-0.00218046,0.00861214,-0.00962468,-0.01500674,0.00615121,0.0
 0139333,-0.00490402,-0.00958753,0.00396379,0.06835898\\0.00002570,-0.0
 0000767,0.00000029,-0.00000138,0.00004038,-0.00000141,0.00000074,0.000
 00007,0.00000602,-0.00002995,-0.00007437,0.00001502,0.00002294,0.00011
 161,-0.00004152,-0.00000938,0.00001088,0.00000702,-0.00000389,-0.00000
 281,0.00000670,-0.00002713,-0.00005881,0.00003762,0.00002237,-0.000019
 29,-0.00002975\\\@


 THE CAUTIOUS SELDOM ERR...CONFUCIUS                   
 Job cpu time:       0 days  4 hours 39 minutes 13.2 seconds.
 File lengths (MBytes):  RWF=    299 Int=      0 D2E=      0 Chk=     16 Scr=      1
 Normal termination of Gaussian 09 at Tue Mar  6 19:34:51 2018.
