 Entering Gaussian System, Link 0=/share/apps/mg09/g09
 Initial command:
 /share/apps//mg09/l1.exe "/state/partition1/gauss_tmp/Gau-11132.inp" -scrdir="/state/partition1/gauss_tmp/"
 Entering Link 1 = /share/apps//mg09/l1.exe PID=     11134.
  
 Copyright (c) 1988,1990,1992,1993,1995,1998,2003,2009,2013,
            Gaussian, Inc.  All Rights Reserved.
  
 This is part of the Gaussian(R) 09 program.  It is based on
 the Gaussian(R) 03 system (copyright 2003, Gaussian, Inc.),
 the Gaussian(R) 98 system (copyright 1998, Gaussian, Inc.),
 the Gaussian(R) 94 system (copyright 1995, Gaussian, Inc.),
 the Gaussian 92(TM) system (copyright 1992, Gaussian, Inc.),
 the Gaussian 90(TM) system (copyright 1990, Gaussian, Inc.),
 the Gaussian 88(TM) system (copyright 1988, Gaussian, Inc.),
 the Gaussian 86(TM) system (copyright 1986, Carnegie Mellon
 University), and the Gaussian 82(TM) system (copyright 1983,
 Carnegie Mellon University). Gaussian is a federally registered
 trademark of Gaussian, Inc.
  
 This software contains proprietary and confidential information,
 including trade secrets, belonging to Gaussian, Inc.
  
 This software is provided under written license and may be
 used, copied, transmitted, or stored only in accord with that
 written license.
  
 The following legend is applicable only to US Government
 contracts under FAR:
  
                    RESTRICTED RIGHTS LEGEND
  
 Use, reproduction and disclosure by the US Government is
 subject to restrictions as set forth in subparagraphs (a)
 and (c) of the Commercial Computer Software - Restricted
 Rights clause in FAR 52.227-19.
  
 Gaussian, Inc.
 340 Quinnipiac St., Bldg. 40, Wallingford CT 06492
  
  
 ---------------------------------------------------------------
 Warning -- This program may not be used in any manner that
 competes with the business of Gaussian, Inc. or will provide
 assistance to any competitor of Gaussian, Inc.  The licensee
 of this program is prohibited from giving any competitor of
 Gaussian, Inc. access to this program.  By using this program,
 the user acknowledges that Gaussian, Inc. is engaged in the
 business of creating and licensing software in the field of
 computational chemistry and represents and warrants to the
 licensee that it is not a competitor of Gaussian, Inc. and that
 it will not use this program in any manner prohibited above.
 ---------------------------------------------------------------
  

 Cite this work as:
 Gaussian 09, Revision D.01,
 M. J. Frisch, G. W. Trucks, H. B. Schlegel, G. E. Scuseria, 
 M. A. Robb, J. R. Cheeseman, G. Scalmani, V. Barone, B. Mennucci, 
 G. A. Petersson, H. Nakatsuji, M. Caricato, X. Li, H. P. Hratchian, 
 A. F. Izmaylov, J. Bloino, G. Zheng, J. L. Sonnenberg, M. Hada, 
 M. Ehara, K. Toyota, R. Fukuda, J. Hasegawa, M. Ishida, T. Nakajima, 
 Y. Honda, O. Kitao, H. Nakai, T. Vreven, J. A. Montgomery, Jr., 
 J. E. Peralta, F. Ogliaro, M. Bearpark, J. J. Heyd, E. Brothers, 
 K. N. Kudin, V. N. Staroverov, T. Keith, R. Kobayashi, J. Normand, 
 K. Raghavachari, A. Rendell, J. C. Burant, S. S. Iyengar, J. Tomasi, 
 M. Cossi, N. Rega, J. M. Millam, M. Klene, J. E. Knox, J. B. Cross, 
 V. Bakken, C. Adamo, J. Jaramillo, R. Gomperts, R. E. Stratmann, 
 O. Yazyev, A. J. Austin, R. Cammi, C. Pomelli, J. W. Ochterski, 
 R. L. Martin, K. Morokuma, V. G. Zakrzewski, G. A. Voth, 
 P. Salvador, J. J. Dannenberg, S. Dapprich, A. D. Daniels, 
 O. Farkas, J. B. Foresman, J. V. Ortiz, J. Cioslowski, 
 and D. J. Fox, Gaussian, Inc., Wallingford CT, 2013.
 
 ******************************************
 Gaussian 09:  ES64L-G09RevD.01 24-Apr-2013
                 6-Mar-2018 
 ******************************************
 %NProcShared=4
 Will use up to    4 processors via shared memory.
 %LindaWorkers=compute-0-0
 %chk=Isomer_40.chk
 %NProc=4
 Will use up to    4 processors via shared memory.
 %mem=4GB
 SetLPE:  input flags=" -vv -opt "Tsnet.Node.lindarsharg: ssh" "
 SetLPE:    new flags=" -vv -opt "Tsnet.Node.lindarsharg: ssh"  -nodelist 'compute-0-0.local'"
 Will use up to    1 processors via Linda.
 ----------------------------------------------------------------------
 #p PBE1PBE/Def2TZVP scf=(maxcycle=768) opt=(cartesian,maxcycle=512) fr
 eq
 ----------------------------------------------------------------------
 1/6=512,10=7,14=-1,18=10,26=3,38=1/1,3;
 2/12=2,17=6,18=5,29=2,40=1/2;
 3/5=44,7=101,11=2,16=1,25=1,30=1,71=1,74=-13/1,2,3;
 4//1;
 5/5=2,7=768,38=5/2;
 6/7=2,8=2,9=2,10=2,28=1/1;
 7/7=1,29=1/1,2,3,16;
 1/6=512,10=7,14=-1,18=10,26=3/3(2);
 2/29=1/2;
 99/12=1/99;
 2/29=1/2;
 3/5=44,7=101,11=2,16=1,25=1,30=1,71=1,74=-13/1,2,3;
 4/5=5,16=3,69=1/1;
 5/5=2,7=768,38=5/2;
 7/7=1/1,2,3,16;
 1/6=512,14=-1,18=10,26=3/3(-5);
 2/29=1/2;
 6/7=2,8=2,9=2,10=2,19=2,28=1/1;
 99/9=1,12=1/99;
 Leave Link    1 at Tue Mar  6 14:55:58 2018, MaxMem=   536870912 cpu:         0.3
 (Enter /share/apps//mg09/l101.exe)
 ---------------------
 01Final_coords.xyz_40
 ---------------------
 Symbolic Z-matrix:
 Charge =  0 Multiplicity = 1
 83                    2.45361   0.84832   0.35385 
 83                   -2.11565   1.26153  -0.17812 
 83                   -1.4174   -1.86224   0.39025 
 32                   -1.50515   0.15389   2.47024 
 83                    1.4295   -1.81936  -0.63626 
 50                   -0.77337  -0.54471  -2.37197 
 32                    0.98489  -0.82871   2.18909 
 32                    0.15849   2.11657   1.55684 
 50                    0.42382   2.2311   -1.48971 
 
 NAtoms=      9 NQM=        9 NQMF=       0 NMMI=      0 NMMIF=      0
                NMic=       0 NMicF=      0.
                    Isotopes and Nuclear Properties:
 (Nuclear quadrupole moments (NQMom) in fm**2, nuclear magnetic moments (NMagM)
  in nuclear magnetons)

  Atom         1           2           3           4           5           6           7           8           9
 IAtWgt=         209         209         209          74         209         118          74          74         118
 AtmWgt= 208.9804000 208.9804000 208.9804000  73.9211788 208.9804000 117.9018000  73.9211788  73.9211788 117.9018000
 NucSpn=           9           9           9           0           9           0           0           0           0
 AtZEff=   0.0000000   0.0000000   0.0000000   0.0000000   0.0000000   0.0000000   0.0000000   0.0000000   0.0000000
 NQMom=  -51.6000000 -51.6000000 -51.6000000   0.0000000 -51.6000000   0.0000000   0.0000000   0.0000000   0.0000000
 NMagM=    4.1106000   4.1106000   4.1106000   0.0000000   4.1106000   0.0000000   0.0000000   0.0000000   0.0000000
 AtZNuc=  83.0000000  83.0000000  83.0000000  32.0000000  83.0000000  50.0000000  32.0000000  32.0000000  50.0000000
 Leave Link  101 at Tue Mar  6 14:55:59 2018, MaxMem=   536870912 cpu:         0.2
 (Enter /share/apps//mg09/l103.exe)

 GradGradGradGradGradGradGradGradGradGradGradGradGradGradGradGradGradGrad
 Berny optimization.
 Initialization pass.
 No Z-matrix variables, so optimization will use Cartesian coordinates.
 Trust Radius=3.00D-01 FncErr=1.00D-07 GrdErr=1.00D-06
 Number of steps in this run=    100 maximum allowed number of steps=    100.
 GradGradGradGradGradGradGradGradGradGradGradGradGradGradGradGradGradGrad

 Leave Link  103 at Tue Mar  6 14:55:59 2018, MaxMem=   536870912 cpu:         0.1
 (Enter /share/apps//mg09/l202.exe)
 ---------------------------------------------------------------------------------------------------
                            Z-MATRIX (ANGSTROMS AND DEGREES)
   CD    Cent   Atom    N1       Length/X        N2       Alpha/Y        N3        Beta/Z          J
 ---------------------------------------------------------------------------------------------------
      1      1  Bi       0   2.453607          0.848316          0.353850
      2      2  Bi       0  -2.115651          1.261534         -0.178117
      3      3  Bi       0  -1.417399         -1.862244          0.390246
      4      4  Ge       0  -1.505150          0.153891          2.470239
      5      5  Bi       0   1.429498         -1.819357         -0.636259
      6      6  Sn       0  -0.773374         -0.544708         -2.371974
      7      7  Ge       0   0.984885         -0.828707          2.189093
      8      8  Ge       0   0.158494          2.116565          1.556841
      9      9  Sn       0   0.423817          2.231095         -1.489712
 ---------------------------------------------------------------------------------------------------
                         Z-Matrix orientation:                         
 ---------------------------------------------------------------------
 Center     Atomic      Atomic             Coordinates (Angstroms)
 Number     Number       Type             X           Y           Z
 ---------------------------------------------------------------------
      1         83           0        2.453607    0.848316    0.353850
      2         83           0       -2.115651    1.261534   -0.178117
      3         83           0       -1.417399   -1.862244    0.390246
      4         32           0       -1.505150    0.153891    2.470239
      5         83           0        1.429498   -1.819357   -0.636259
      6         50           0       -0.773374   -0.544708   -2.371974
      7         32           0        0.984885   -0.828707    2.189093
      8         32           0        0.158494    2.116565    1.556841
      9         50           0        0.423817    2.231095   -1.489712
 ---------------------------------------------------------------------
                    Distance matrix (angstroms):
                    1          2          3          4          5
     1  Bi   0.000000
     2  Bi   4.618642   0.000000
     3  Bi   4.725796   3.250935   0.000000
     4  Ge   4.542366   2.934855   2.898081   0.000000
     5  Bi   3.024168   4.719096   3.026611   4.707037   0.000000
     6  Sn   4.447925   3.142805   3.127384   4.946773   3.080598
     7  Ge   2.887502   4.425620   3.174117   2.691620   3.026827
     8  Ge   2.884993   2.985447   4.435685   2.730219   4.681519
     9  Sn   3.070968   3.018150   4.866184   4.870000   4.259805
                    6          7          8          9
     6  Sn   0.000000
     7  Ge   4.896474   0.000000
     8  Ge   4.835942   3.123666   0.000000
     9  Sn   3.149085   4.817758   3.060229   0.000000
 Stoichiometry    Bi4Ge3Sn2
 Framework group  C1[X(Bi4Ge3Sn2)]
 Deg. of freedom    21
 Full point group                 C1      NOp   1
 Largest Abelian subgroup         C1      NOp   1
 Largest concise Abelian subgroup C1      NOp   1
                         Standard orientation:                         
 ---------------------------------------------------------------------
 Center     Atomic      Atomic             Coordinates (Angstroms)
 Number     Number       Type             X           Y           Z
 ---------------------------------------------------------------------
      1         83           0        2.453607    0.848315    0.353850
      2         83           0       -2.115650    1.261535   -0.178117
      3         83           0       -1.417400   -1.862243    0.390246
      4         32           0       -1.505150    0.153892    2.470239
      5         83           0        1.429497   -1.819358   -0.636259
      6         50           0       -0.773374   -0.544708   -2.371974
      7         32           0        0.984884   -0.828707    2.189093
      8         32           0        0.158495    2.116565    1.556841
      9         50           0        0.423818    2.231095   -1.489712
 ---------------------------------------------------------------------
 Rotational constants (GHZ):      0.1018269      0.0930414      0.0805041
 Leave Link  202 at Tue Mar  6 14:55:59 2018, MaxMem=   536870912 cpu:         0.1
 (Enter /share/apps//mg09/l301.exe)
 Standard basis: def2TZVP (5D, 7F)
 Ernie: Thresh=  0.10000D-02 Tol=  0.10000D-05 Strict=F.
 There are   519 symmetry adapted cartesian basis functions of A   symmetry.
 There are   444 symmetry adapted basis functions of A   symmetry.
   444 basis functions,   963 primitive gaussians,   519 cartesian basis functions
   116 alpha electrons      116 beta electrons
       nuclear repulsion energy      3566.9553629227 Hartrees.
 IExCor= 1009 DFT=T Ex+Corr=PBE1PBE ExCW=0 ScaHFX=  0.250000
 ScaDFX=  0.750000  0.750000  1.000000  1.000000 ScalE2=  1.000000  1.000000
 IRadAn=      0 IRanWt=     -1 IRanGd=            0 ICorTp=0 IEmpDi=  4
 NAtoms=    9 NActive=    9 NUniq=    9 SFac= 1.00D+00 NAtFMM=   60 NAOKFM=F Big=F
 Integral buffers will be    131072 words long.
 Raffenetti 2 integral format.
 Two-electron integral symmetry is turned on.
 Leave Link  301 at Tue Mar  6 14:55:59 2018, MaxMem=   536870912 cpu:         0.3
 (Enter /share/apps//mg09/l302.exe)
 NPDir=0 NMtPBC=     1 NCelOv=     1 NCel=       1 NClECP=     1 NCelD=      1
         NCelK=      1 NCelE2=     1 NClLst=     1 CellRange=     0.0.
 One-electron integrals computed using PRISM.
   1 Symmetry operations used in ECPInt.
 ECPInt:  NShTT=   10440 NPrTT=   41973 LenC2=    9692 LenP2D=   27422.
 LDataN:  DoStor=T MaxTD1= 8 Len=  415
 NBasis=   444 RedAO= T EigKep=  1.47D-03  NBF=   444
 NBsUse=   444 1.00D-06 EigRej= -1.00D+00 NBFU=   444
 Precomputing XC quadrature grid using
 IXCGrd= 4 IRadAn=           0 IRanWt=          -1 IRanGd=           0 AccXCQ= 0.00D+00.
 Defaulting to unpruned grid for atomic number  83.
 Defaulting to unpruned grid for atomic number  83.
 Defaulting to unpruned grid for atomic number  50.
 Generated NRdTot=       0 NPtTot=           0 NUsed=           0 NTot=          32
 NSgBfM=   498   498   498   498   498 MxSgAt=     9 MxSgA2=     9.
 Leave Link  302 at Tue Mar  6 14:56:09 2018, MaxMem=   536870912 cpu:        37.1
 (Enter /share/apps//mg09/l303.exe)
 DipDrv:  MaxL=1.
 Leave Link  303 at Tue Mar  6 14:56:09 2018, MaxMem=   536870912 cpu:         0.3
 (Enter /share/apps//mg09/l401.exe)
 ExpMin= 4.62D-02 ExpMax= 4.66D+05 ExpMxC= 4.50D+03 IAcc=2 IRadAn=         4 AccDes= 0.00D+00
 Harris functional with IExCor= 1009 and IRadAn=       4 diagonalized for initial guess.
 HarFok:  IExCor= 1009 AccDes= 0.00D+00 IRadAn=         4 IDoV= 1 UseB2=F ITyADJ=14
 ICtDFT=  3500011 ScaDFX=  1.000000  1.000000  1.000000  1.000000
 Defaulting to unpruned grid for atomic number  83.
 Defaulting to unpruned grid for atomic number  83.
 Defaulting to unpruned grid for atomic number  83.
 Defaulting to unpruned grid for atomic number  83.
 FoFCou: FMM=F IPFlag=           0 FMFlag=      100000 FMFlg1=           0
         NFxFlg=           0 DoJE=T BraDBF=F KetDBF=T FulRan=T
         wScrn=  0.000000 ICntrl=     500 IOpCl=  0 I1Cent=   200000004 NGrid=           0
         NMat0=    1 NMatS0=      1 NMatT0=    0 NMatD0=    1 NMtDS0=    0 NMtDT0=    0
 Petite list used in FoFCou.
 Harris En= -7518.60480414434    
 JPrj=0 DoOrth=F DoCkMO=F.
 Leave Link  401 at Tue Mar  6 14:56:13 2018, MaxMem=   536870912 cpu:        12.0
 (Enter /share/apps//mg09/l502.exe)
 Closed shell SCF:
 Using DIIS extrapolation, IDIIS=  1040.
 Integral symmetry usage will be decided dynamically.
 IVT=     1410107 IEndB=     1410107 NGot=   536870912 MDV=   536322046
 LenX=   536322046 LenY=   536052166
 Requested convergence on RMS density matrix=1.00D-08 within 768 cycles.
 Requested convergence on MAX density matrix=1.00D-06.
 Requested convergence on             energy=1.00D-06.
 No special actions if energy rises.
 Fock matrices will be formed incrementally for  20 cycles.

 Cycle   1  Pass 1  IDiag  1:
 FoFJK:  IHMeth= 1 ICntrl=       0 DoSepK=F KAlg= 0 I1Cent=   0 FoldK=F
 IRaf= 880000000 NMat=   1 IRICut=       1 DoRegI=T DoRafI=F ISym2E= 0.
 FoFCou: FMM=F IPFlag=           0 FMFlag=      100000 FMFlg1=           0
         NFxFlg=           0 DoJE=F BraDBF=F KetDBF=F FulRan=T
         wScrn=  0.000000 ICntrl=       0 IOpCl=  0 I1Cent=           0 NGrid=           0
         NMat0=    1 NMatS0=      1 NMatT0=    0 NMatD0=    1 NMtDS0=    0 NMtDT0=    0
 Symmetry not used in FoFCou.
 Defaulting to unpruned grid for atomic number  83.
 Defaulting to unpruned grid for atomic number  83.
 Defaulting to unpruned grid for atomic number  83.
 Defaulting to unpruned grid for atomic number  83.
 E= -7517.25618137697    
 DIIS: error= 2.80D-02 at cycle   1 NSaved=   1.
 NSaved= 1 IEnMin= 1 EnMin= -7517.25618137697     IErMin= 1 ErrMin= 2.80D-02
 ErrMax= 2.80D-02  0.00D+00 EMaxC= 1.00D-01 BMatC= 1.45D+00 BMatP= 1.45D+00
 IDIUse=3 WtCom= 7.20D-01 WtEn= 2.80D-01
 Coeff-Com:  0.100D+01
 Coeff-En:   0.100D+01
 Coeff:      0.100D+01
 Gap=     0.121 Goal=   None    Shift=    0.000
 GapD=    0.121 DampG=1.000 DampE=0.500 DampFc=0.5000 IDamp=-1.
 Damping current iteration by 5.00D-01
 RMSDP=4.81D-03 MaxDP=2.06D-01              OVMax= 5.19D-01

 Cycle   2  Pass 1  IDiag  1:
 RMSU=  2.40D-03    CP:  1.01D+00
 E= -7517.31182780238     Delta-E=       -0.055646425411 Rises=F Damp=T
 DIIS: error= 9.34D-03 at cycle   2 NSaved=   2.
 NSaved= 2 IEnMin= 2 EnMin= -7517.31182780238     IErMin= 2 ErrMin= 9.34D-03
 ErrMax= 9.34D-03  0.00D+00 EMaxC= 1.00D-01 BMatC= 1.88D-01 BMatP= 1.45D+00
 IDIUse=3 WtCom= 9.07D-01 WtEn= 9.34D-02
 Coeff-Com:  0.690D-01 0.931D+00
 Coeff-En:   0.453D+00 0.547D+00
 Coeff:      0.105D+00 0.895D+00
 Gap=     0.138 Goal=   None    Shift=    0.000
 RMSDP=3.00D-03 MaxDP=1.12D-01 DE=-5.56D-02 OVMax= 4.84D-01

 Cycle   3  Pass 1  IDiag  1:
 RMSU=  2.49D-03    CP:  1.01D+00  2.99D-01
 E= -7516.58165183442     Delta-E=        0.730175967965 Rises=F Damp=F
 DIIS: error= 2.78D-02 at cycle   3 NSaved=   3.
 NSaved= 3 IEnMin= 2 EnMin= -7517.31182780238     IErMin= 2 ErrMin= 9.34D-03
 ErrMax= 2.78D-02  0.00D+00 EMaxC= 1.00D-01 BMatC= 9.84D-01 BMatP= 1.88D-01
 IDIUse=2 WtCom= 0.00D+00 WtEn= 1.00D+00
 EnCoef did     9 forward-backward iterations
 Coeff-En:   0.204D+00 0.602D+00 0.194D+00
 Coeff:      0.204D+00 0.602D+00 0.194D+00
 Gap=     0.161 Goal=   None    Shift=    0.000
 RMSDP=2.79D-03 MaxDP=1.01D-01 DE= 7.30D-01 OVMax= 3.65D-01

 Cycle   4  Pass 1  IDiag  1:
 RMSU=  9.10D-04    CP:  1.01D+00  9.29D-01  1.34D-01
 E= -7517.75226684309     Delta-E=       -1.170615008674 Rises=F Damp=F
 DIIS: error= 5.71D-03 at cycle   4 NSaved=   4.
 NSaved= 4 IEnMin= 4 EnMin= -7517.75226684309     IErMin= 4 ErrMin= 5.71D-03
 ErrMax= 5.71D-03  0.00D+00 EMaxC= 1.00D-01 BMatC= 6.28D-02 BMatP= 1.88D-01
 IDIUse=3 WtCom= 9.43D-01 WtEn= 5.71D-02
 Coeff-Com:  0.109D+00 0.314D-01 0.109D+00 0.750D+00
 Coeff-En:   0.000D+00 0.000D+00 0.645D-01 0.935D+00
 Coeff:      0.103D+00 0.296D-01 0.107D+00 0.761D+00
 Gap=     0.106 Goal=   None    Shift=    0.000
 RMSDP=9.62D-04 MaxDP=5.59D-02 DE=-1.17D+00 OVMax= 1.27D-01

 Cycle   5  Pass 1  IDiag  1:
 RMSU=  6.84D-04    CP:  1.00D+00  7.31D-01  2.41D-01  6.15D-01
 E= -7517.77243413798     Delta-E=       -0.020167294884 Rises=F Damp=F
 DIIS: error= 4.96D-03 at cycle   5 NSaved=   5.
 NSaved= 5 IEnMin= 5 EnMin= -7517.77243413798     IErMin= 5 ErrMin= 4.96D-03
 ErrMax= 4.96D-03  0.00D+00 EMaxC= 1.00D-01 BMatC= 3.21D-02 BMatP= 6.28D-02
 IDIUse=3 WtCom= 9.50D-01 WtEn= 4.96D-02
 Coeff-Com:  0.890D-01-0.134D+00 0.109D-01 0.601D+00 0.433D+00
 Coeff-En:   0.000D+00 0.000D+00 0.000D+00 0.410D+00 0.590D+00
 Coeff:      0.846D-01-0.127D+00 0.104D-01 0.591D+00 0.441D+00
 Gap=     0.115 Goal=   None    Shift=    0.000
 RMSDP=5.96D-04 MaxDP=3.08D-02 DE=-2.02D-02 OVMax= 9.45D-02

 Cycle   6  Pass 1  IDiag  1:
 RMSU=  3.22D-04    CP:  1.00D+00  7.24D-01  1.89D-01  8.39D-01  3.62D-01
 E= -7517.79836544380     Delta-E=       -0.025931305823 Rises=F Damp=F
 DIIS: error= 2.72D-03 at cycle   6 NSaved=   6.
 NSaved= 6 IEnMin= 6 EnMin= -7517.79836544380     IErMin= 6 ErrMin= 2.72D-03
 ErrMax= 2.72D-03  0.00D+00 EMaxC= 1.00D-01 BMatC= 8.21D-03 BMatP= 3.21D-02
 IDIUse=3 WtCom= 9.73D-01 WtEn= 2.72D-02
 EnCoef did     4 forward-backward iterations
 Coeff-Com:  0.602D-01-0.110D+00-0.117D-02 0.412D+00 0.354D+00 0.286D+00
 Coeff-En:   0.000D+00 0.000D+00 0.000D+00 0.220D-01 0.261D+00 0.717D+00
 Coeff:      0.585D-01-0.107D+00-0.114D-02 0.401D+00 0.351D+00 0.298D+00
 Gap=     0.113 Goal=   None    Shift=    0.000
 RMSDP=2.77D-04 MaxDP=1.03D-02 DE=-2.59D-02 OVMax= 3.95D-02

 Cycle   7  Pass 1  IDiag  1:
 RMSU=  8.97D-05    CP:  1.00D+00  7.32D-01  1.73D-01  8.29D-01  5.04D-01
                    CP:  2.59D-01
 E= -7517.80867669687     Delta-E=       -0.010311253071 Rises=F Damp=F
 DIIS: error= 6.39D-04 at cycle   7 NSaved=   7.
 NSaved= 7 IEnMin= 7 EnMin= -7517.80867669687     IErMin= 7 ErrMin= 6.39D-04
 ErrMax= 6.39D-04  0.00D+00 EMaxC= 1.00D-01 BMatC= 5.34D-04 BMatP= 8.21D-03
 IDIUse=3 WtCom= 9.94D-01 WtEn= 6.39D-03
 Coeff-Com:  0.220D-01-0.451D-01 0.106D-02 0.143D+00 0.137D+00 0.206D+00
 Coeff-Com:  0.536D+00
 Coeff-En:   0.000D+00 0.000D+00 0.000D+00 0.000D+00 0.000D+00 0.880D-01
 Coeff-En:   0.912D+00
 Coeff:      0.218D-01-0.448D-01 0.106D-02 0.142D+00 0.136D+00 0.206D+00
 Coeff:      0.538D+00
 Gap=     0.113 Goal=   None    Shift=    0.000
 RMSDP=6.81D-05 MaxDP=3.39D-03 DE=-1.03D-02 OVMax= 9.33D-03

 Cycle   8  Pass 1  IDiag  1:
 RMSU=  3.08D-05    CP:  1.00D+00  7.29D-01  1.87D-01  8.41D-01  4.72D-01
                    CP:  3.73D-01  7.32D-01
 E= -7517.80933759469     Delta-E=       -0.000660897815 Rises=F Damp=F
 DIIS: error= 1.09D-04 at cycle   8 NSaved=   8.
 NSaved= 8 IEnMin= 8 EnMin= -7517.80933759469     IErMin= 8 ErrMin= 1.09D-04
 ErrMax= 1.09D-04  0.00D+00 EMaxC= 1.00D-01 BMatC= 1.66D-05 BMatP= 5.34D-04
 IDIUse=3 WtCom= 9.99D-01 WtEn= 1.09D-03
 Coeff-Com:  0.807D-02-0.174D-01 0.695D-03 0.495D-01 0.474D-01 0.762D-01
 Coeff-Com:  0.243D+00 0.593D+00
 Coeff-En:   0.000D+00 0.000D+00 0.000D+00 0.000D+00 0.000D+00 0.000D+00
 Coeff-En:   0.000D+00 0.100D+01
 Coeff:      0.806D-02-0.174D-01 0.694D-03 0.495D-01 0.473D-01 0.762D-01
 Coeff:      0.242D+00 0.593D+00
 Gap=     0.113 Goal=   None    Shift=    0.000
 RMSDP=1.73D-05 MaxDP=1.03D-03 DE=-6.61D-04 OVMax= 1.99D-03

 Cycle   9  Pass 1  IDiag  1:
 RMSU=  1.32D-05    CP:  1.00D+00  7.29D-01  1.86D-01  8.39D-01  4.77D-01
                    CP:  3.72D-01  7.55D-01  6.79D-01
 E= -7517.80934524674     Delta-E=       -0.000007652052 Rises=F Damp=F
 DIIS: error= 6.69D-05 at cycle   9 NSaved=   9.
 NSaved= 9 IEnMin= 9 EnMin= -7517.80934524674     IErMin= 9 ErrMin= 6.69D-05
 ErrMax= 6.69D-05  0.00D+00 EMaxC= 1.00D-01 BMatC= 8.44D-06 BMatP= 1.66D-05
 IDIUse=1 WtCom= 1.00D+00 WtEn= 0.00D+00
 Coeff-Com:  0.140D-03-0.749D-03 0.537D-03-0.157D-02-0.231D-03 0.593D-02
 Coeff-Com:  0.556D-01 0.425D+00 0.515D+00
 Coeff:      0.140D-03-0.749D-03 0.537D-03-0.157D-02-0.231D-03 0.593D-02
 Coeff:      0.556D-01 0.425D+00 0.515D+00
 Gap=     0.113 Goal=   None    Shift=    0.000
 RMSDP=1.09D-05 MaxDP=8.31D-04 DE=-7.65D-06 OVMax= 1.17D-03

 Cycle  10  Pass 1  IDiag  1:
 RMSU=  6.05D-06    CP:  1.00D+00  7.28D-01  1.86D-01  8.39D-01  4.76D-01
                    CP:  3.72D-01  7.64D-01  8.57D-01  5.00D-01
 E= -7517.80935196724     Delta-E=       -0.000006720507 Rises=F Damp=F
 DIIS: error= 5.40D-05 at cycle  10 NSaved=  10.
 NSaved=10 IEnMin=10 EnMin= -7517.80935196724     IErMin=10 ErrMin= 5.40D-05
 ErrMax= 5.40D-05  0.00D+00 EMaxC= 1.00D-01 BMatC= 2.28D-06 BMatP= 8.44D-06
 IDIUse=1 WtCom= 1.00D+00 WtEn= 0.00D+00
 Coeff-Com: -0.450D-03 0.655D-03 0.281D-03-0.456D-02-0.328D-02-0.978D-03
 Coeff-Com:  0.235D-01 0.265D+00 0.394D+00 0.326D+00
 Coeff:     -0.450D-03 0.655D-03 0.281D-03-0.456D-02-0.328D-02-0.978D-03
 Coeff:      0.235D-01 0.265D+00 0.394D+00 0.326D+00
 Gap=     0.113 Goal=   None    Shift=    0.000
 RMSDP=4.95D-06 MaxDP=1.84D-04 DE=-6.72D-06 OVMax= 5.58D-04

 Cycle  11  Pass 1  IDiag  1:
 RMSU=  2.25D-06    CP:  1.00D+00  7.28D-01  1.86D-01  8.40D-01  4.77D-01
                    CP:  3.72D-01  7.70D-01  8.56D-01  6.36D-01  3.42D-01
 E= -7517.80935481434     Delta-E=       -0.000002847093 Rises=F Damp=F
 DIIS: error= 1.18D-05 at cycle  11 NSaved=  11.
 NSaved=11 IEnMin=11 EnMin= -7517.80935481434     IErMin=11 ErrMin= 1.18D-05
 ErrMax= 1.18D-05  0.00D+00 EMaxC= 1.00D-01 BMatC= 2.54D-07 BMatP= 2.28D-06
 IDIUse=1 WtCom= 1.00D+00 WtEn= 0.00D+00
 Coeff-Com: -0.308D-03 0.536D-03 0.208D-04-0.262D-02-0.206D-02-0.214D-02
 Coeff-Com:  0.409D-02 0.950D-01 0.182D+00 0.246D+00 0.480D+00
 Coeff:     -0.308D-03 0.536D-03 0.208D-04-0.262D-02-0.206D-02-0.214D-02
 Coeff:      0.409D-02 0.950D-01 0.182D+00 0.246D+00 0.480D+00
 Gap=     0.113 Goal=   None    Shift=    0.000
 RMSDP=1.46D-06 MaxDP=6.83D-05 DE=-2.85D-06 OVMax= 1.86D-04

 Cycle  12  Pass 1  IDiag  1:
 RMSU=  6.95D-07    CP:  1.00D+00  7.28D-01  1.86D-01  8.39D-01  4.77D-01
                    CP:  3.73D-01  7.68D-01  8.55D-01  6.28D-01  4.66D-01
                    CP:  6.67D-01
 E= -7517.80935512516     Delta-E=       -0.000000310818 Rises=F Damp=F
 DIIS: error= 1.59D-06 at cycle  12 NSaved=  12.
 NSaved=12 IEnMin=12 EnMin= -7517.80935512516     IErMin=12 ErrMin= 1.59D-06
 ErrMax= 1.59D-06  0.00D+00 EMaxC= 1.00D-01 BMatC= 6.88D-09 BMatP= 2.54D-07
 IDIUse=1 WtCom= 1.00D+00 WtEn= 0.00D+00
 Coeff-Com: -0.996D-04 0.188D-03-0.531D-05-0.813D-03-0.717D-03-0.832D-03
 Coeff-Com:  0.566D-03 0.152D-01 0.464D-01 0.748D-01 0.192D+00 0.673D+00
 Coeff:     -0.996D-04 0.188D-03-0.531D-05-0.813D-03-0.717D-03-0.832D-03
 Coeff:      0.566D-03 0.152D-01 0.464D-01 0.748D-01 0.192D+00 0.673D+00
 Gap=     0.113 Goal=   None    Shift=    0.000
 RMSDP=3.22D-07 MaxDP=1.45D-05 DE=-3.11D-07 OVMax= 4.03D-05

 Cycle  13  Pass 1  IDiag  1:
 RMSU=  2.03D-07    CP:  1.00D+00  7.28D-01  1.86D-01  8.40D-01  4.77D-01
                    CP:  3.73D-01  7.70D-01  8.56D-01  6.35D-01  4.74D-01
                    CP:  7.33D-01  9.37D-01
 E= -7517.80935513251     Delta-E=       -0.000000007352 Rises=F Damp=F
 DIIS: error= 1.13D-06 at cycle  13 NSaved=  13.
 NSaved=13 IEnMin=13 EnMin= -7517.80935513251     IErMin=13 ErrMin= 1.13D-06
 ErrMax= 1.13D-06  0.00D+00 EMaxC= 1.00D-01 BMatC= 1.54D-09 BMatP= 6.88D-09
 IDIUse=1 WtCom= 1.00D+00 WtEn= 0.00D+00
 Coeff-Com: -0.112D-04 0.245D-04-0.542D-05-0.862D-04-0.147D-03-0.171D-03
 Coeff-Com: -0.469D-03-0.716D-02-0.886D-03 0.453D-02 0.318D-01 0.360D+00
 Coeff-Com:  0.613D+00
 Coeff:     -0.112D-04 0.245D-04-0.542D-05-0.862D-04-0.147D-03-0.171D-03
 Coeff:     -0.469D-03-0.716D-02-0.886D-03 0.453D-02 0.318D-01 0.360D+00
 Coeff:      0.613D+00
 Gap=     0.113 Goal=   None    Shift=    0.000
 RMSDP=1.39D-07 MaxDP=7.17D-06 DE=-7.35D-09 OVMax= 1.90D-05

 Cycle  14  Pass 1  IDiag  1:
 RMSU=  8.25D-08    CP:  1.00D+00  7.28D-01  1.86D-01  8.39D-01  4.77D-01
                    CP:  3.73D-01  7.70D-01  8.56D-01  6.39D-01  4.78D-01
                    CP:  7.38D-01  1.03D+00  8.03D-01
 E= -7517.80935513390     Delta-E=       -0.000000001393 Rises=F Damp=F
 DIIS: error= 2.40D-07 at cycle  14 NSaved=  14.
 NSaved=14 IEnMin=14 EnMin= -7517.80935513390     IErMin=14 ErrMin= 2.40D-07
 ErrMax= 2.40D-07  0.00D+00 EMaxC= 1.00D-01 BMatC= 1.25D-10 BMatP= 1.54D-09
 IDIUse=1 WtCom= 1.00D+00 WtEn= 0.00D+00
 Coeff-Com: -0.167D-05 0.521D-05-0.866D-06-0.104D-04-0.455D-04-0.435D-04
 Coeff-Com: -0.292D-03-0.465D-02-0.436D-02-0.451D-02-0.348D-02 0.119D+00
 Coeff-Com:  0.302D+00 0.596D+00
 Coeff:     -0.167D-05 0.521D-05-0.866D-06-0.104D-04-0.455D-04-0.435D-04
 Coeff:     -0.292D-03-0.465D-02-0.436D-02-0.451D-02-0.348D-02 0.119D+00
 Coeff:      0.302D+00 0.596D+00
 Gap=     0.113 Goal=   None    Shift=    0.000
 RMSDP=5.15D-08 MaxDP=3.26D-06 DE=-1.39D-09 OVMax= 6.26D-06

 Cycle  15  Pass 1  IDiag  1:
 RMSU=  2.98D-08    CP:  1.00D+00  7.28D-01  1.86D-01  8.40D-01  4.77D-01
                    CP:  3.73D-01  7.70D-01  8.57D-01  6.40D-01  4.80D-01
                    CP:  7.44D-01  1.04D+00  8.95D-01  7.90D-01
 E= -7517.80935513412     Delta-E=       -0.000000000220 Rises=F Damp=F
 DIIS: error= 1.37D-07 at cycle  15 NSaved=  15.
 NSaved=15 IEnMin=15 EnMin= -7517.80935513412     IErMin=15 ErrMin= 1.37D-07
 ErrMax= 1.37D-07  0.00D+00 EMaxC= 1.00D-01 BMatC= 2.09D-11 BMatP= 1.25D-10
 IDIUse=1 WtCom= 1.00D+00 WtEn= 0.00D+00
 Coeff-Com:  0.195D-05-0.347D-05-0.313D-06 0.138D-04 0.732D-05-0.263D-05
 Coeff-Com: -0.779D-04-0.121D-02-0.206D-02-0.288D-02-0.693D-02 0.344D-02
 Coeff-Com:  0.463D-01 0.310D+00 0.654D+00
 Coeff:      0.195D-05-0.347D-05-0.313D-06 0.138D-04 0.732D-05-0.263D-05
 Coeff:     -0.779D-04-0.121D-02-0.206D-02-0.288D-02-0.693D-02 0.344D-02
 Coeff:      0.463D-01 0.310D+00 0.654D+00
 Gap=     0.113 Goal=   None    Shift=    0.000
 RMSDP=1.91D-08 MaxDP=8.93D-07 DE=-2.20D-10 OVMax= 2.89D-06

 Cycle  16  Pass 1  IDiag  1:
 RMSU=  9.41D-09    CP:  1.00D+00  7.28D-01  1.86D-01  8.40D-01  4.77D-01
                    CP:  3.73D-01  7.70D-01  8.57D-01  6.40D-01  4.80D-01
                    CP:  7.45D-01  1.05D+00  8.89D-01  9.09D-01  8.55D-01
 E= -7517.80935513395     Delta-E=        0.000000000169 Rises=F Damp=F
 DIIS: error= 2.86D-08 at cycle  16 NSaved=  16.
 NSaved=16 IEnMin=15 EnMin= -7517.80935513412     IErMin=16 ErrMin= 2.86D-08
 ErrMax= 2.86D-08  0.00D+00 EMaxC= 1.00D-01 BMatC= 1.53D-12 BMatP= 2.09D-11
 IDIUse=1 WtCom= 1.00D+00 WtEn= 0.00D+00
 Coeff-Com:  0.134D-05-0.270D-05-0.880D-07 0.938D-05 0.863D-05 0.208D-05
 Coeff-Com: -0.271D-04-0.323D-03-0.727D-03-0.102D-02-0.296D-02-0.643D-02
 Coeff-Com:  0.130D-02 0.994D-01 0.311D+00 0.600D+00
 Coeff:      0.134D-05-0.270D-05-0.880D-07 0.938D-05 0.863D-05 0.208D-05
 Coeff:     -0.271D-04-0.323D-03-0.727D-03-0.102D-02-0.296D-02-0.643D-02
 Coeff:      0.130D-02 0.994D-01 0.311D+00 0.600D+00
 Gap=     0.113 Goal=   None    Shift=    0.000
 RMSDP=5.41D-09 MaxDP=3.11D-07 DE= 1.69D-10 OVMax= 6.23D-07

 SCF Done:  E(RPBE1PBE) =  -7517.80935513     A.U. after   16 cycles
            NFock= 16  Conv=0.54D-08     -V/T= 2.1285
 KE= 6.661946036103D+03 PE=-2.472497556783D+04 EE= 6.978264813674D+03
 Leave Link  502 at Tue Mar  6 15:11:09 2018, MaxMem=   536870912 cpu:      3493.8
 (Enter /share/apps//mg09/l601.exe)
 Copying SCF densities to generalized density rwf, IOpCl= 0 IROHF=0.

 **********************************************************************

            Population analysis using the SCF density.

 **********************************************************************

 Orbital symmetries:
       Occupied  (A) (A) (A) (A) (A) (A) (A) (A) (A) (A) (A) (A)
                 (A) (A) (A) (A) (A) (A) (A) (A) (A) (A) (A) (A)
                 (A) (A) (A) (A) (A) (A) (A) (A) (A) (A) (A) (A)
                 (A) (A) (A) (A) (A) (A) (A) (A) (A) (A) (A) (A)
                 (A) (A) (A) (A) (A) (A) (A) (A) (A) (A) (A) (A)
                 (A) (A) (A) (A) (A) (A) (A) (A) (A) (A) (A) (A)
                 (A) (A) (A) (A) (A) (A) (A) (A) (A) (A) (A) (A)
                 (A) (A) (A) (A) (A) (A) (A) (A) (A) (A) (A) (A)
                 (A) (A) (A) (A) (A) (A) (A) (A) (A) (A) (A) (A)
                 (A) (A) (A) (A) (A) (A) (A) (A)
       Virtual   (A) (A) (A) (A) (A) (A) (A) (A) (A) (A) (A) (A)
                 (A) (A) (A) (A) (A) (A) (A) (A) (A) (A) (A) (A)
                 (A) (A) (A) (A) (A) (A) (A) (A) (A) (A) (A) (A)
                 (A) (A) (A) (A) (A) (A) (A) (A) (A) (A) (A) (A)
                 (A) (A) (A) (A) (A) (A) (A) (A) (A) (A) (A) (A)
                 (A) (A) (A) (A) (A) (A) (A) (A) (A) (A) (A) (A)
                 (A) (A) (A) (A) (A) (A) (A) (A) (A) (A) (A) (A)
                 (A) (A) (A) (A) (A) (A) (A) (A) (A) (A) (A) (A)
                 (A) (A) (A) (A) (A) (A) (A) (A) (A) (A) (A) (A)
                 (A) (A) (A) (A) (A) (A) (A) (A) (A) (A) (A) (A)
                 (A) (A) (A) (A) (A) (A) (A) (A) (A) (A) (A) (A)
                 (A) (A) (A) (A) (A) (A) (A) (A) (A) (A) (A) (A)
                 (A) (A) (A) (A) (A) (A) (A) (A) (A) (A) (A) (A)
                 (A) (A) (A) (A) (A) (A) (A) (A) (A) (A) (A) (A)
                 (A) (A) (A) (A) (A) (A) (A) (A) (A) (A) (A) (A)
                 (A) (A) (A) (A) (A) (A) (A) (A) (A) (A) (A) (A)
                 (A) (A) (A) (A) (A) (A) (A) (A) (A) (A) (A) (A)
                 (A) (A) (A) (A) (A) (A) (A) (A) (A) (A) (A) (A)
                 (A) (A) (A) (A) (A) (A) (A) (A) (A) (A) (A) (A)
                 (A) (A) (A) (A) (A) (A) (A) (A) (A) (A) (A) (A)
                 (A) (A) (A) (A) (A) (A) (A) (A) (A) (A) (A) (A)
                 (A) (A) (A) (A) (A) (A) (A) (A) (A) (A) (A) (A)
                 (A) (A) (A) (A) (A) (A) (A) (A) (A) (A) (A) (A)
                 (A) (A) (A) (A) (A) (A) (A) (A) (A) (A) (A) (A)
                 (A) (A) (A) (A) (A) (A) (A) (A) (A) (A) (A) (A)
                 (A) (A) (A) (A) (A) (A) (A) (A) (A) (A) (A) (A)
                 (A) (A) (A) (A) (A) (A) (A) (A) (A) (A) (A) (A)
                 (A) (A) (A) (A)
 The electronic state is 1-A.
 Alpha  occ. eigenvalues -- -399.10423-399.09935-399.09395 -49.91964 -49.91488
 Alpha  occ. eigenvalues --  -49.91005 -44.40069 -44.40021 -44.39975 -44.39573
 Alpha  occ. eigenvalues --  -44.39542 -44.39520 -44.39086 -44.39075 -44.39007
 Alpha  occ. eigenvalues --   -6.28464  -6.27990  -6.27523  -6.02626  -6.02014
 Alpha  occ. eigenvalues --   -6.01901  -6.01357  -5.13005  -5.12870  -4.43964
 Alpha  occ. eigenvalues --   -4.43820  -4.43657  -4.43439  -4.43330  -4.43261
 Alpha  occ. eigenvalues --   -4.42981  -4.42943  -4.42714  -3.74903  -3.74739
 Alpha  occ. eigenvalues --   -3.74659  -3.74289  -3.74175  -3.74159  -3.74100
 Alpha  occ. eigenvalues --   -3.74013  -3.73833  -3.73697  -3.73427  -3.73355
 Alpha  occ. eigenvalues --   -3.46238  -3.46196  -3.46077  -3.46007  -3.45917
 Alpha  occ. eigenvalues --   -3.45868  -1.23418  -1.23384  -1.23244  -1.23173
 Alpha  occ. eigenvalues --   -1.23124  -1.22877  -1.22868  -1.22810  -1.22745
 Alpha  occ. eigenvalues --   -1.22702  -1.22478  -1.22449  -1.22258  -1.22203
 Alpha  occ. eigenvalues --   -1.22170  -1.08892  -1.08550  -1.08480  -1.08376
 Alpha  occ. eigenvalues --   -1.08293  -1.08097  -1.07904  -1.07823  -1.07809
 Alpha  occ. eigenvalues --   -1.07732  -1.07715  -1.07652  -1.07608  -1.07502
 Alpha  occ. eigenvalues --   -1.07396  -1.07227  -1.07134  -1.06979  -1.06931
 Alpha  occ. eigenvalues --   -1.06871  -1.02494  -1.02493  -1.02388  -1.02296
 Alpha  occ. eigenvalues --   -1.02270  -1.02196  -1.02174  -1.02039  -1.02008
 Alpha  occ. eigenvalues --   -1.01879  -0.66935  -0.62145  -0.60509  -0.55839
 Alpha  occ. eigenvalues --   -0.51906  -0.46564  -0.44258  -0.42179  -0.40363
 Alpha  occ. eigenvalues --   -0.29226  -0.27769  -0.27005  -0.25566  -0.25054
 Alpha  occ. eigenvalues --   -0.24565  -0.23424  -0.22980  -0.22204  -0.20649
 Alpha  occ. eigenvalues --   -0.19336
 Alpha virt. eigenvalues --   -0.08031  -0.07457  -0.06961  -0.06685  -0.06005
 Alpha virt. eigenvalues --   -0.05644  -0.05336  -0.04654  -0.04267  -0.04065
 Alpha virt. eigenvalues --   -0.03582  -0.01786  -0.01556   0.03716   0.05144
 Alpha virt. eigenvalues --    0.05178   0.06298   0.08325   0.08697   0.09007
 Alpha virt. eigenvalues --    0.09217   0.09367   0.09923   0.10508   0.10574
 Alpha virt. eigenvalues --    0.11366   0.11493   0.12054   0.12210   0.13414
 Alpha virt. eigenvalues --    0.13886   0.16189   0.16720   0.17007   0.17308
 Alpha virt. eigenvalues --    0.17834   0.18370   0.18953   0.19738   0.19922
 Alpha virt. eigenvalues --    0.20738   0.20884   0.21659   0.23242   0.23939
 Alpha virt. eigenvalues --    0.24261   0.25884   0.26199   0.26932   0.28473
 Alpha virt. eigenvalues --    0.28944   0.29646   0.30282   0.30826   0.31146
 Alpha virt. eigenvalues --    0.31736   0.32545   0.32825   0.33556   0.33942
 Alpha virt. eigenvalues --    0.34506   0.35425   0.35909   0.37032   0.38029
 Alpha virt. eigenvalues --    0.38282   0.40029   0.40436   0.40847   0.41529
 Alpha virt. eigenvalues --    0.42184   0.42900   0.43610   0.44337   0.44779
 Alpha virt. eigenvalues --    0.45302   0.46432   0.46904   0.47500   0.47696
 Alpha virt. eigenvalues --    0.48816   0.48909   0.49657   0.50304   0.50743
 Alpha virt. eigenvalues --    0.51774   0.54187   0.54911   0.55335   0.56087
 Alpha virt. eigenvalues --    0.56483   0.57161   0.58881   0.59161   0.59906
 Alpha virt. eigenvalues --    0.60358   0.60990   0.61085   0.61595   0.61828
 Alpha virt. eigenvalues --    0.63201   0.64472   0.64889   0.65818   0.66606
 Alpha virt. eigenvalues --    0.66681   0.67150   0.67987   0.69413   0.69624
 Alpha virt. eigenvalues --    0.70484   0.71156   0.72088   0.72923   0.74240
 Alpha virt. eigenvalues --    0.74519   0.75319   0.76375   0.77009   0.77200
 Alpha virt. eigenvalues --    0.78688   0.79240   0.80432   0.80731   0.81574
 Alpha virt. eigenvalues --    0.83206   0.83622   0.84295   0.84946   0.85643
 Alpha virt. eigenvalues --    0.87044   0.87838   0.88166   0.88540   0.89697
 Alpha virt. eigenvalues --    0.90612   0.91219   0.92200   0.92800   0.93190
 Alpha virt. eigenvalues --    0.93844   0.94475   0.95046   0.96336   0.96889
 Alpha virt. eigenvalues --    0.98404   0.98795   0.99029   0.99575   1.00283
 Alpha virt. eigenvalues --    1.02023   1.03486   1.03967   1.05119   1.06557
 Alpha virt. eigenvalues --    1.06665   1.08218   1.08633   1.10793   1.11525
 Alpha virt. eigenvalues --    1.11832   1.14439   1.14879   1.17617   1.18452
 Alpha virt. eigenvalues --    1.18934   1.19160   1.19839   1.20481   1.20711
 Alpha virt. eigenvalues --    1.21270   1.21580   1.21779   1.21916   1.22269
 Alpha virt. eigenvalues --    1.23118   1.23311   1.23987   1.24548   1.25262
 Alpha virt. eigenvalues --    1.26001   1.26160   1.26295   1.26994   1.27361
 Alpha virt. eigenvalues --    1.27791   1.28205   1.28842   1.29721   1.30004
 Alpha virt. eigenvalues --    1.30832   1.31355   1.32160   1.32418   1.33361
 Alpha virt. eigenvalues --    1.34622   1.35529   1.36337   1.38304   1.38804
 Alpha virt. eigenvalues --    1.39773   1.40047   1.40861   1.43156   1.44185
 Alpha virt. eigenvalues --    1.44656   1.45590   1.46118   1.46928   1.48147
 Alpha virt. eigenvalues --    1.49329   1.50136   1.51719   1.53150   1.54052
 Alpha virt. eigenvalues --    1.55523   1.56242   1.56459   1.59300   1.59866
 Alpha virt. eigenvalues --    1.65962   1.68682   1.69939   2.04099   2.08083
 Alpha virt. eigenvalues --    2.08692   2.09472   2.11881   2.14672   2.15129
 Alpha virt. eigenvalues --    2.16821   2.17272   2.19396   2.19941   2.20602
 Alpha virt. eigenvalues --    2.22536   2.22827   2.24332   2.24796   2.25337
 Alpha virt. eigenvalues --    2.25778   2.27482   2.29562   2.30139   2.32096
 Alpha virt. eigenvalues --    2.33338   2.35070   2.36123   2.36441   2.38933
 Alpha virt. eigenvalues --    2.40297   2.41679   2.42018   2.44279   2.45238
 Alpha virt. eigenvalues --    2.46838   2.48887   2.52616   2.54198   2.56787
 Alpha virt. eigenvalues --    2.59618   2.61522   2.63107   2.65288   2.65817
 Alpha virt. eigenvalues --    2.68413   2.69943   2.70556   2.72331   2.73335
 Alpha virt. eigenvalues --    2.75888   2.76433   2.77510   2.82517   2.83943
 Alpha virt. eigenvalues --    2.85683   2.87232   2.89465   2.89706   2.98150
 Alpha virt. eigenvalues --    3.18551   3.23904   3.32747   3.33747   3.38939
 Alpha virt. eigenvalues --    3.43647   3.91428   3.92500   3.97807   3.99768
 Alpha virt. eigenvalues --    4.01733   4.03482   4.08129   4.16848   4.21325
 Alpha virt. eigenvalues --    5.20016   5.34290   5.44089  35.37094  35.38736
 Alpha virt. eigenvalues --   35.41802  35.44680  35.45288  35.47076  35.50402
 Alpha virt. eigenvalues --   35.51431  35.55223  35.56053  35.60387  35.63481
 Alpha virt. eigenvalues --   35.88710  35.89783  36.02739  36.09261  36.18496
 Alpha virt. eigenvalues --   36.21762  36.88443  36.96226  36.98731  37.02442
 Alpha virt. eigenvalues --   37.05831  37.18919 113.57008 113.59334 120.21963
 Alpha virt. eigenvalues --  120.22830 120.25022 120.25809
          Condensed to atoms (all electrons):
               1          2          3          4          5          6
     1  Bi  22.358472  -0.021266  -0.023666  -0.022829   0.190201  -0.014345
     2  Bi  -0.021266  22.291620   0.100867   0.135018  -0.024990   0.131691
     3  Bi  -0.023666   0.100867  22.287741   0.160990   0.182237   0.135471
     4  Ge  -0.022829   0.135018   0.160990  31.594679  -0.018418  -0.011710
     5  Bi   0.190201  -0.024990   0.182237  -0.018418  22.380835   0.168412
     6  Sn  -0.014345   0.131691   0.135471  -0.011710   0.168412  21.513304
     7  Ge   0.162818  -0.032384   0.081415   0.179480   0.114893  -0.015353
     8  Ge   0.160711   0.130726  -0.029003   0.149703  -0.018013  -0.014461
     9  Sn   0.171385   0.171136  -0.023522  -0.013407  -0.008565   0.170189
               7          8          9
     1  Bi   0.162818   0.160711   0.171385
     2  Bi  -0.032384   0.130726   0.171136
     3  Bi   0.081415  -0.029003  -0.023522
     4  Ge   0.179480   0.149703  -0.013407
     5  Bi   0.114893  -0.018013  -0.008565
     6  Sn  -0.015353  -0.014461   0.170189
     7  Ge  31.509116   0.053037  -0.015122
     8  Ge   0.053037  31.517316   0.114438
     9  Sn  -0.015122   0.114438  21.431388
 Mulliken charges:
               1
     1  Bi   0.038519
     2  Bi   0.117581
     3  Bi   0.127471
     4  Ge  -0.153507
     5  Bi   0.033409
     6  Sn  -0.063199
     7  Ge  -0.037900
     8  Ge  -0.064453
     9  Sn   0.002080
 Sum of Mulliken charges =   0.00000
 Mulliken charges with hydrogens summed into heavy atoms:
               1
     1  Bi   0.038519
     2  Bi   0.117581
     3  Bi   0.127471
     4  Ge  -0.153507
     5  Bi   0.033409
     6  Sn  -0.063199
     7  Ge  -0.037900
     8  Ge  -0.064453
     9  Sn   0.002080
 Electronic spatial extent (au):  <R**2>=           6066.5893
 Charge=              0.0000 electrons
 Dipole moment (field-independent basis, Debye):
    X=              0.1531    Y=             -0.8953    Z=             -0.9764  Tot=              1.3335
 Quadrupole moment (field-independent basis, Debye-Ang):
   XX=           -214.1584   YY=           -218.5628   ZZ=           -222.3070
   XY=              0.2893   XZ=             -1.3271   YZ=              0.0057
 Traceless Quadrupole moment (field-independent basis, Debye-Ang):
   XX=              4.1843   YY=             -0.2200   ZZ=             -3.9643
   XY=              0.2893   XZ=             -1.3271   YZ=              0.0057
 Octapole moment (field-independent basis, Debye-Ang**2):
  XXX=             19.4334  YYY=            -78.7071  ZZZ=            -40.5655  XYY=              1.8161
  XXY=            -16.9470  XXZ=            -16.3199  XZZ=             11.0434  YZZ=            -20.1142
  YYZ=            -13.4231  XYZ=              7.1507
 Hexadecapole moment (field-independent basis, Debye-Ang**3):
 XXXX=          -3303.2206 YYYY=          -3310.4699 ZZZZ=          -3049.4182 XXXY=            -12.7670
 XXXZ=            -10.0469 YYYX=             -5.0118 YYYZ=             19.0791 ZZZX=             -4.6734
 ZZZY=              3.4486 XXYY=          -1073.1039 XXZZ=          -1088.0781 YYZZ=          -1061.0032
 XXYZ=              1.3987 YYXZ=            -17.8301 ZZXY=            -13.0774
 N-N= 3.566955362923D+03 E-N=-2.472497557114D+04  KE= 6.661946036103D+03
 No NMR shielding tensors so no spin-rotation constants.
 Leave Link  601 at Tue Mar  6 15:11:10 2018, MaxMem=   536870912 cpu:         1.7
 (Enter /share/apps//mg09/l701.exe)
 Compute integral first derivatives.
 ... and contract with generalized density number  0.
   1 Symmetry operations used in ECPInt.
 ECPInt:  NShTT=   10440 NPrTT=   41973 LenC2=    9692 LenP2D=   27422.
 LDataN:  DoStor=T MaxTD1= 9 Len=  602
 Leave Link  701 at Tue Mar  6 15:11:32 2018, MaxMem=   536870912 cpu:        85.2
 (Enter /share/apps//mg09/l702.exe)
 L702 exits ... SP integral derivatives will be done elsewhere.
 Leave Link  702 at Tue Mar  6 15:11:32 2018, MaxMem=   536870912 cpu:         0.0
 (Enter /share/apps//mg09/l703.exe)
 Compute integral first derivatives, UseDBF=F ICtDFT=           0.
 Integral derivatives from FoFJK, PRISM(SPDF).
 Calling FoFJK, ICntrl=      2127 FMM=F ISym2X=0 I1Cent= 0 IOpClX= 0 NMat=1 NMatS=1 NMatT=0.
 FoFJK:  IHMeth= 1 ICntrl=    2127 DoSepK=F KAlg= 0 I1Cent=   0 FoldK=F
 IRaf=         0 NMat=   1 IRICut=       1 DoRegI=T DoRafI=F ISym2E= 0.
 FoFCou: FMM=F IPFlag=           0 FMFlag=      100000 FMFlg1=         800
         NFxFlg=           0 DoJE=F BraDBF=F KetDBF=F FulRan=T
         wScrn=  0.000000 ICntrl=    2127 IOpCl=  0 I1Cent=           0 NGrid=           0
         NMat0=    1 NMatS0=      1 NMatT0=    0 NMatD0=    1 NMtDS0=    0 NMtDT0=    0
 Symmetry not used in FoFCou.
 Defaulting to unpruned grid for atomic number  83.
 Defaulting to unpruned grid for atomic number  83.
 Defaulting to unpruned grid for atomic number  83.
 Defaulting to unpruned grid for atomic number  83.
 Leave Link  703 at Tue Mar  6 15:14:50 2018, MaxMem=   536870912 cpu:       778.0
 (Enter /share/apps//mg09/l716.exe)
 Dipole        = 6.02473790D-02-3.52230141D-01-3.84144788D-01
 ***** Axes restored to original set *****
 -------------------------------------------------------------------
 Center     Atomic                   Forces (Hartrees/Bohr)
 Number     Number              X              Y              Z
 -------------------------------------------------------------------
      1       83          -0.009657088   -0.001527353    0.002007823
      2       83           0.009645196   -0.002778269    0.002637559
      3       83           0.004714160    0.007466860    0.000467421
      4       32           0.012089094    0.001258007   -0.011039138
      5       83          -0.004816915    0.005619444    0.002893383
      6       50           0.002651605    0.003337325    0.009763397
      7       32          -0.008324802    0.008154306   -0.008580414
      8       32          -0.002816137   -0.013230115   -0.006692776
      9       50          -0.003485111   -0.008300205    0.008542744
 -------------------------------------------------------------------
 Cartesian Forces:  Max     0.013230115 RMS     0.006999887
 Force constants in Cartesian coordinates: 
                1             2             3             4             5 
      1  0.189164D+00
      2  0.110070D-01  0.139376D+00
      3 -0.157835D-01 -0.935066D-02  0.117763D+00
      4 -0.646779D-02 -0.383634D-02 -0.156512D-02  0.213072D+00
      5  0.572549D-02  0.408567D-02  0.996350D-03 -0.277614D-01  0.150513D+00
      6 -0.110340D-02 -0.138455D-03  0.642745D-02  0.146614D-01 -0.131639D-01
      7 -0.271818D-02 -0.702027D-03 -0.153641D-02 -0.290905D-01  0.212795D-01
      8 -0.951621D-02  0.863306D-03 -0.142747D-03 -0.135704D-01 -0.451213D-01
      9  0.135576D-02  0.177260D-02  0.614035D-02  0.106352D-02  0.889734D-02
     10 -0.349297D-02 -0.382034D-02  0.164707D-02 -0.326305D-01  0.157883D-01
     11 -0.262344D-02  0.100412D-01 -0.146427D-02  0.300191D-02 -0.278234D-01
     12  0.754726D-02  0.194117D-03  0.217125D-02  0.124774D-01  0.100968D-01
     13 -0.314513D-01 -0.245688D-01 -0.120857D-01 -0.208885D-02  0.973866D-03
     14  0.637745D-02 -0.500003D-01 -0.186989D-01  0.945951D-02 -0.580580D-04
     15  0.392815D-02 -0.666236D-02 -0.194205D-01  0.244160D-02 -0.215059D-02
     16 -0.320404D-02 -0.325886D-02 -0.286124D-02 -0.300508D-01  0.211822D-01
     17 -0.353647D-02  0.628827D-02 -0.288330D-02  0.779639D-02 -0.283630D-01
     18 -0.319939D-02 -0.279416D-02 -0.215365D-02 -0.807380D-02 -0.259395D-02
     19 -0.438485D-01 -0.247947D-01  0.307691D-01 -0.238381D-02  0.534841D-02
     20 -0.769885D-03 -0.408241D-01  0.297226D-01  0.724786D-02  0.405113D-02
     21 -0.271631D-02  0.217187D-01 -0.490667D-01 -0.101267D-01  0.649059D-02
     22 -0.594757D-01  0.329174D-01  0.300234D-01 -0.530292D-01 -0.210649D-01
     23 -0.135155D-02 -0.419955D-01 -0.114642D-01  0.104831D-01 -0.334975D-01
     24  0.886373D-02 -0.179722D-01 -0.327140D-01 -0.107916D-01 -0.213222D-01
     25 -0.385061D-01  0.170567D-01 -0.286075D-01 -0.573309D-01 -0.214715D-01
     26 -0.531241D-02 -0.278341D-01  0.132852D-01  0.717936D-02 -0.237864D-01
     27  0.110767D-02  0.132324D-01 -0.291467D-01 -0.867388D-04  0.127495D-01
                6             7             8             9            10 
      6  0.172217D+00
      7 -0.371122D-02  0.163237D+00
      8  0.192611D-02  0.416795D-01  0.194967D+00
      9 -0.150875D-01 -0.107433D-01  0.118125D-01  0.156374D+00
     10 -0.263499D-01 -0.249993D-01 -0.160642D-01 -0.460357D-02  0.155794D+00
     11  0.253977D-01  0.689838D-02 -0.541154D-01 -0.412167D-01 -0.182762D-02
     12 -0.655251D-01  0.175026D-01 -0.934241D-02 -0.536079D-01 -0.317796D-01
     13 -0.127541D-02 -0.577543D-01  0.124161D-01  0.185793D-01  0.336424D-02
     14 -0.131753D-04 -0.226297D-01 -0.273802D-01  0.250547D-02  0.575134D-02
     15  0.487081D-02  0.105344D-01 -0.104465D-01 -0.236801D-01  0.552491D-02
     16  0.219524D-01 -0.184004D-01 -0.114344D-01  0.178644D-01  0.361416D-02
     17 -0.207498D-01 -0.821727D-02 -0.325611D-01  0.263891D-01 -0.396512D-03
     18 -0.377713D-01 -0.453855D-02 -0.556536D-02 -0.469612D-01  0.440384D-02
     19 -0.236294D-02 -0.374592D-01  0.111934D-02 -0.232075D-01 -0.661155D-01
     20  0.272628D-02 -0.230452D-01 -0.272678D-01 -0.108206D-01  0.951942D-02
     21  0.160688D-02 -0.810812D-02  0.137061D-01 -0.324725D-01  0.245436D-01
     22 -0.273345D-01  0.440295D-02 -0.410579D-02  0.112595D-02 -0.412484D-01
     23 -0.359422D-02 -0.825571D-02 -0.703094D-02 -0.134237D-02 -0.677882D-02
     24 -0.369899D-01 -0.268778D-02 -0.786877D-02  0.596482D-02  0.200275D-01
     25  0.255235D-01  0.278164D-02 -0.523945D-03 -0.143464D-02  0.571463D-02
     26  0.760952D-02 -0.700754D-02 -0.235369D-02  0.200258D-02 -0.217158D-02
     27 -0.297486D-01  0.328832D-02  0.592109D-02  0.333022D-02  0.658613D-02
               11            12            13            14            15 
     11  0.142713D+00
     12  0.179980D-02  0.197557D+00
     13  0.200116D-02  0.791168D-02  0.140998D+00
     14  0.236644D-02 -0.458639D-02 -0.232360D-01  0.133963D+00
     15  0.920648D-03  0.170883D-02 -0.874166D-02  0.289726D-01  0.126199D+00
     16 -0.148752D-02 -0.162599D-02 -0.349394D-01  0.105005D-01 -0.289350D-01
     17  0.870593D-02 -0.292961D-02  0.163393D-01 -0.271491D-01  0.127058D-01
     18 -0.152248D-02 -0.490567D-02 -0.373598D-03 -0.849419D-02 -0.322419D-01
     19  0.233845D-01 -0.177392D-01 -0.259108D-01  0.104251D-01  0.145043D-01
     20 -0.323544D-01  0.120681D-01  0.648937D-02 -0.226488D-01 -0.247153D-01
     21 -0.611920D-02 -0.394290D-01 -0.105288D-01  0.543475D-02 -0.623827D-01
     22 -0.312126D-01  0.132093D-02  0.438589D-02 -0.202262D-03 -0.170661D-02
     23 -0.523961D-01 -0.147191D-01  0.639860D-02 -0.268717D-02 -0.194714D-02
     24  0.205906D-01 -0.377391D-01  0.374650D-02 -0.748951D-02  0.239898D-02
     25  0.186528D-02  0.438497D-02  0.339596D-02  0.355402D-02  0.244983D-02
     26  0.286319D-02  0.741864D-02  0.318646D-02 -0.640545D-02  0.332281D-02
     27  0.161388D-02 -0.230282D-03  0.276769D-02  0.236943D-02  0.254746D-02
               16            17            18            19            20 
     16  0.902900D-01
     17 -0.264929D-02  0.105572D+00
     18  0.141547D-01  0.107963D-01  0.157124D+00
     19  0.470902D-02 -0.165721D-02 -0.397154D-02  0.182402D+00
     20  0.161638D-02  0.417135D-02  0.484236D-02 -0.133823D-01  0.154828D+00
     21 -0.399754D-02 -0.358380D-02 -0.428554D-02  0.143504D-01 -0.316287D-01
     22  0.529715D-02  0.129684D-02 -0.808797D-03 -0.173048D-01  0.143163D-01
     23 -0.267360D-02  0.134598D-02 -0.859513D-02 -0.278382D-02 -0.404403D-01
     24 -0.390177D-02 -0.817674D-03 -0.232070D-02 -0.907724D-02  0.163871D-01
     25 -0.173157D-01 -0.897574D-02  0.240714D-02  0.591135D-02 -0.199198D-02
     26 -0.117954D-01 -0.380104D-01  0.139266D-01  0.234073D-02  0.485288D-03
     27 -0.126500D-01 -0.189270D-01 -0.264840D-01 -0.326535D-02  0.141820D-02
               21            22            23            24            25 
     21  0.217499D+00
     22 -0.389567D-02  0.173464D+00
     23 -0.152075D-01  0.116705D-01  0.205059D+00
     24 -0.300698D-01 -0.583735D-02  0.414330D-01  0.181289D+00
     25  0.479120D-03 -0.164922D-01 -0.670871D-02 -0.341985D-03  0.111841D+00
     26  0.918907D-02 -0.361552D-02 -0.283574D-01 -0.229403D-01  0.171959D-01
     27 -0.139920D-02  0.711268D-02  0.154366D-01 -0.498196D-01 -0.486042D-02
               26            27 
     26  0.123399D+00
     27 -0.338142D-01  0.130951D+00
 Leave Link  716 at Tue Mar  6 15:14:50 2018, MaxMem=   536870912 cpu:         0.1
 (Enter /share/apps//mg09/l103.exe)

 GradGradGradGradGradGradGradGradGradGradGradGradGradGradGradGradGradGrad
 Berny optimization.
 Search for a local minimum.
 Step number   1 out of a maximum of  100
 All quantities printed in internal units (Hartrees-Bohrs-Radians)
 Second derivative matrix not updated -- first step.
 ITU=  0
     Eigenvalues ---    0.07548   0.11833   0.12351   0.12629   0.12654
     Eigenvalues ---    0.13244   0.14989   0.15532   0.16569   0.16715
     Eigenvalues ---    0.18695   0.21212   0.22081   0.23796   0.24908
     Eigenvalues ---    0.25331   0.27519   0.29669   0.30916   0.31172
     Eigenvalues ---    0.32016
 RFO step:  Lambda=-7.84757722D-03 EMin= 7.54811388D-02
 Linear search not attempted -- first point.
 TrRot=  0.000162 -0.000219 -0.003083  0.239499  0.000057 -0.239500
 MatCor failed.
 Variable       Old X    -DE/DX   Delta X   Delta X   Delta X     New X
                                 (Linear)    (Quad)   (Total)
    X1        4.63665  -0.00966   0.00000  -0.06244  -0.06224   4.57441
    Y1        1.60308  -0.00153   0.00000  -0.01502  -0.01524   1.58785
    Z1        0.66868   0.00201   0.00000   0.00454   0.00118   0.66986
    X2       -3.99800   0.00965   0.00000   0.05093   0.05108  -3.94692
    Y2        2.38395  -0.00278   0.00000  -0.02714  -0.02736   2.35660
    Z2       -0.33659   0.00264   0.00000   0.01344   0.01055  -0.32605
    X3       -2.67850   0.00471   0.00000   0.02816   0.02836  -2.65013
    Y3       -3.51913   0.00747   0.00000   0.05012   0.04991  -3.46922
    Z3        0.73746   0.00047   0.00000  -0.00323  -0.00611   0.73134
    X4       -2.84432   0.01209   0.00000   0.06438   0.06480  -2.77952
    Y4        0.29081   0.00126   0.00000   0.00960   0.00945   0.30026
    Z4        4.66808  -0.01104   0.00000  -0.05831  -0.06124   4.60684
    X5        2.70136  -0.00482   0.00000  -0.03415  -0.03406   2.66730
    Y5       -3.43809   0.00562   0.00000   0.04688   0.04665  -3.39144
    Z5       -1.20236   0.00289   0.00000   0.01936   0.01618  -1.18618
    X6       -1.46147   0.00265   0.00000   0.02413   0.02404  -1.43742
    Y6       -1.02935   0.00334   0.00000   0.02739   0.02711  -1.00224
    Z6       -4.48238   0.00976   0.00000   0.07160   0.06861  -4.41377
    X7        1.86116  -0.00832   0.00000  -0.04123  -0.04085   1.82032
    Y7       -1.56603   0.00815   0.00000   0.04120   0.04103  -1.52500
    Z7        4.13679  -0.00858   0.00000  -0.04569  -0.04885   4.08793
    X8        0.29951  -0.00282   0.00000  -0.01297  -0.01264   0.28687
    Y8        3.99973  -0.01323   0.00000  -0.06606  -0.06624   3.93348
    Z8        2.94200  -0.00669   0.00000  -0.03439  -0.03754   2.90446
    X9        0.80090  -0.00349   0.00000  -0.01852  -0.01851   0.78239
    Y9        4.21616  -0.00830   0.00000  -0.06505  -0.06531   4.15085
    Z9       -2.81515   0.00854   0.00000   0.06042   0.05723  -2.75791
         Item               Value     Threshold  Converged?
 Maximum Force            0.013230     0.000450     NO 
 RMS     Force            0.007000     0.000300     NO 
 Maximum Displacement     0.068607     0.001800     NO 
 RMS     Displacement     0.042227     0.001200     NO 
 Predicted change in Energy=-4.113019D-03
 Lowest energy point so far.  Saving SCF results.
 GradGradGradGradGradGradGradGradGradGradGradGradGradGradGradGradGradGrad

 Leave Link  103 at Tue Mar  6 15:14:50 2018, MaxMem=   536870912 cpu:         0.1
 (Enter /share/apps//mg09/l202.exe)
                          Input orientation:                          
 ---------------------------------------------------------------------
 Center     Atomic      Atomic             Coordinates (Angstroms)
 Number     Number       Type             X           Y           Z
 ---------------------------------------------------------------------
      1         83           0        2.420672    0.840252    0.354476
      2         83           0       -2.088620    1.247057   -0.172536
      3         83           0       -1.402390   -1.835831    0.387010
      4         32           0       -1.470860    0.158889    2.437833
      5         83           0        1.411476   -1.794673   -0.627699
      6         50           0       -0.760650   -0.530362   -2.335669
      7         32           0        0.963270   -0.806994    2.163242
      8         32           0        0.151807    2.081510    1.536977
      9         50           0        0.414024    2.196537   -1.459426
 ---------------------------------------------------------------------
                    Distance matrix (angstroms):
                    1          2          3          4          5
     1  Bi   0.000000
     2  Bi   4.558173   0.000000
     3  Bi   4.666721   3.207523   0.000000
     4  Ge   4.466391   2.894782   2.861725   0.000000
     5  Bi   2.987637   4.659395   2.991517   4.639154   0.000000
     6  Sn   4.385917   3.098687   3.086918   4.875016   3.038712
     7  Ge   2.847643   4.357639   3.132069   2.633119   2.994286
     8  Ge   2.843726   2.939092   4.368468   2.672276   4.614909
     9  Sn   3.025952   2.969987   4.792565   4.784706   4.197194
                    6          7          8          9
     6  Sn   0.000000
     7  Ge   4.825829   0.000000
     8  Ge   4.759394   3.064985   0.000000
     9  Sn   3.095745   4.737783   3.010052   0.000000
 Stoichiometry    Bi4Ge3Sn2
 Framework group  C1[X(Bi4Ge3Sn2)]
 Deg. of freedom    21
 Full point group                 C1      NOp   1
 RotChk:  IX=0 Diff= 1.05D-02
 Largest Abelian subgroup         C1      NOp   1
 Largest concise Abelian subgroup C1      NOp   1
                         Standard orientation:                         
 ---------------------------------------------------------------------
 Center     Atomic      Atomic             Coordinates (Angstroms)
 Number     Number       Type             X           Y           Z
 ---------------------------------------------------------------------
      1         83           0        2.419169    0.848187    0.342569
      2         83           0       -2.092043    1.237141   -0.181478
      3         83           0       -1.395274   -1.839805    0.397417
      4         32           0       -1.467608    0.168101    2.435199
      5         83           0        1.417201   -1.796331   -0.621047
      6         50           0       -0.761048   -0.550188   -2.334562
      7         32           0        0.969260   -0.791795    2.163913
      8         32           0        0.147798    2.089935    1.519732
      9         50           0        0.405973    2.186134   -1.477684
 ---------------------------------------------------------------------
 Rotational constants (GHZ):      0.1048047      0.0956710      0.0827920
 Leave Link  202 at Tue Mar  6 15:14:51 2018, MaxMem=   536870912 cpu:         0.0
 (Enter /share/apps//mg09/l301.exe)
 Standard basis: def2TZVP (5D, 7F)
 Ernie: Thresh=  0.10000D-02 Tol=  0.10000D-05 Strict=F.
 There are   519 symmetry adapted cartesian basis functions of A   symmetry.
 There are   444 symmetry adapted basis functions of A   symmetry.
   444 basis functions,   963 primitive gaussians,   519 cartesian basis functions
   116 alpha electrons      116 beta electrons
       nuclear repulsion energy      3622.3022122844 Hartrees.
 IExCor= 1009 DFT=T Ex+Corr=PBE1PBE ExCW=0 ScaHFX=  0.250000
 ScaDFX=  0.750000  0.750000  1.000000  1.000000 ScalE2=  1.000000  1.000000
 IRadAn=      0 IRanWt=     -1 IRanGd=            0 ICorTp=0 IEmpDi=  4
 NAtoms=    9 NActive=    9 NUniq=    9 SFac= 1.00D+00 NAtFMM=   60 NAOKFM=F Big=F
 Integral buffers will be    131072 words long.
 Raffenetti 2 integral format.
 Two-electron integral symmetry is turned on.
 Leave Link  301 at Tue Mar  6 15:14:51 2018, MaxMem=   536870912 cpu:         0.2
 (Enter /share/apps//mg09/l302.exe)
 NPDir=0 NMtPBC=     1 NCelOv=     1 NCel=       1 NClECP=     1 NCelD=      1
         NCelK=      1 NCelE2=     1 NClLst=     1 CellRange=     0.0.
 One-electron integrals computed using PRISM.
   1 Symmetry operations used in ECPInt.
 ECPInt:  NShTT=   10440 NPrTT=   41973 LenC2=    9716 LenP2D=   27605.
 LDataN:  DoStor=T MaxTD1= 8 Len=  415
 NBasis=   444 RedAO= T EigKep=  1.27D-03  NBF=   444
 NBsUse=   444 1.00D-06 EigRej= -1.00D+00 NBFU=   444
 Precomputing XC quadrature grid using
 IXCGrd= 4 IRadAn=           0 IRanWt=          -1 IRanGd=           0 AccXCQ= 0.00D+00.
 Defaulting to unpruned grid for atomic number  83.
 Defaulting to unpruned grid for atomic number  83.
 Defaulting to unpruned grid for atomic number  50.
 Generated NRdTot=       0 NPtTot=           0 NUsed=           0 NTot=          32
 NSgBfM=   503   503   503   505   508 MxSgAt=     9 MxSgA2=     9.
 Leave Link  302 at Tue Mar  6 15:14:59 2018, MaxMem=   536870912 cpu:        30.2
 (Enter /share/apps//mg09/l303.exe)
 DipDrv:  MaxL=1.
 Leave Link  303 at Tue Mar  6 15:14:59 2018, MaxMem=   536870912 cpu:         0.2
 (Enter /share/apps//mg09/l401.exe)
 Initial guess from the checkpoint file:  "Isomer_40.chk"
 B after Tr=     0.000000    0.000000    0.000000
         Rot=    0.999994    0.003074   -0.000556   -0.001585 Ang=   0.40 deg.
 Guess basis will be translated and rotated to current coordinates.
 JPrj=2 DoOrth=T DoCkMO=T.
 Generating alternative initial guess.
 ExpMin= 4.62D-02 ExpMax= 4.66D+05 ExpMxC= 4.50D+03 IAcc=2 IRadAn=         4 AccDes= 0.00D+00
 Harris functional with IExCor= 1009 and IRadAn=       4 diagonalized for initial guess.
 HarFok:  IExCor= 1009 AccDes= 0.00D+00 IRadAn=         4 IDoV= 1 UseB2=F ITyADJ=14
 ICtDFT=  3500011 ScaDFX=  1.000000  1.000000  1.000000  1.000000
 Defaulting to unpruned grid for atomic number  83.
 Defaulting to unpruned grid for atomic number  83.
 Defaulting to unpruned grid for atomic number  83.
 Defaulting to unpruned grid for atomic number  83.
 FoFCou: FMM=F IPFlag=           0 FMFlag=      100000 FMFlg1=           0
         NFxFlg=           0 DoJE=T BraDBF=F KetDBF=T FulRan=T
         wScrn=  0.000000 ICntrl=     500 IOpCl=  0 I1Cent=   200000004 NGrid=           0
         NMat0=    1 NMatS0=      1 NMatT0=    0 NMatD0=    1 NMtDS0=    0 NMtDT0=    0
 Petite list used in FoFCou.
 Harris En= -7518.61511694930    
 Leave Link  401 at Tue Mar  6 15:15:02 2018, MaxMem=   536870912 cpu:        12.7
 (Enter /share/apps//mg09/l502.exe)
 Closed shell SCF:
 Using DIIS extrapolation, IDIIS=  1040.
 Integral symmetry usage will be decided dynamically.
 IVT=     1410107 IEndB=     1410107 NGot=   536870912 MDV=   536322046
 LenX=   536322046 LenY=   536052166
 Requested convergence on RMS density matrix=1.00D-08 within 768 cycles.
 Requested convergence on MAX density matrix=1.00D-06.
 Requested convergence on             energy=1.00D-06.
 No special actions if energy rises.
 Fock matrices will be formed incrementally for  20 cycles.

 Cycle   1  Pass 1  IDiag  1:
 FoFJK:  IHMeth= 1 ICntrl=       0 DoSepK=F KAlg= 0 I1Cent=   0 FoldK=F
 IRaf= 880000000 NMat=   1 IRICut=       1 DoRegI=T DoRafI=F ISym2E= 0.
 FoFCou: FMM=F IPFlag=           0 FMFlag=      100000 FMFlg1=           0
         NFxFlg=           0 DoJE=F BraDBF=F KetDBF=F FulRan=T
         wScrn=  0.000000 ICntrl=       0 IOpCl=  0 I1Cent=           0 NGrid=           0
         NMat0=    1 NMatS0=      1 NMatT0=    0 NMatD0=    1 NMtDS0=    0 NMtDT0=    0
 Symmetry not used in FoFCou.
 Defaulting to unpruned grid for atomic number  83.
 Defaulting to unpruned grid for atomic number  83.
 Defaulting to unpruned grid for atomic number  83.
 Defaulting to unpruned grid for atomic number  83.
 E= -7517.81371089991    
 DIIS: error= 4.60D-03 at cycle   1 NSaved=   1.
 NSaved= 1 IEnMin= 1 EnMin= -7517.81371089991     IErMin= 1 ErrMin= 4.60D-03
 ErrMax= 4.60D-03  0.00D+00 EMaxC= 1.00D-01 BMatC= 7.76D-03 BMatP= 7.76D-03
 IDIUse=3 WtCom= 9.54D-01 WtEn= 4.60D-02
 Coeff-Com:  0.100D+01
 Coeff-En:   0.100D+01
 Coeff:      0.100D+01
 Gap=     8.136 Goal=   None    Shift=    0.000
 GapD=    8.136 DampG=2.000 DampE=1.000 DampFc=2.0000 IDamp=-1.
 RMSDP=1.71D-04 MaxDP=3.80D-03              OVMax= 1.74D-02

 Cycle   2  Pass 1  IDiag  1:
 RMSU=  1.70D-04    CP:  1.00D+00
 E= -7517.81372693157     Delta-E=       -0.000016031659 Rises=F Damp=F
 DIIS: error= 1.39D-03 at cycle   2 NSaved=   2.
 NSaved= 2 IEnMin= 2 EnMin= -7517.81372693157     IErMin= 2 ErrMin= 1.39D-03
 ErrMax= 1.39D-03  0.00D+00 EMaxC= 1.00D-01 BMatC= 1.52D-03 BMatP= 7.76D-03
 IDIUse=3 WtCom= 9.86D-01 WtEn= 1.39D-02
 Coeff-Com:  0.202D+00 0.798D+00
 Coeff-En:   0.495D+00 0.505D+00
 Coeff:      0.206D+00 0.794D+00
 Gap=     0.116 Goal=   None    Shift=    0.000
 RMSDP=2.05D-04 MaxDP=8.21D-03 DE=-1.60D-05 OVMax= 1.80D-02

 Cycle   3  Pass 1  IDiag  1:
 RMSU=  1.89D-04    CP:  9.99D-01  5.52D-01
 E= -7517.81156000467     Delta-E=        0.002166926906 Rises=F Damp=F
 DIIS: error= 2.02D-03 at cycle   3 NSaved=   3.
 NSaved= 3 IEnMin= 2 EnMin= -7517.81372693157     IErMin= 2 ErrMin= 1.39D-03
 ErrMax= 2.02D-03  0.00D+00 EMaxC= 1.00D-01 BMatC= 3.83D-03 BMatP= 1.52D-03
 IDIUse=3 WtCom= 1.82D-01 WtEn= 8.18D-01
 Coeff-Com:  0.989D-02 0.612D+00 0.378D+00
 Coeff-En:   0.000D+00 0.681D+00 0.319D+00
 Coeff:      0.180D-02 0.669D+00 0.330D+00
 Gap=     0.116 Goal=   None    Shift=    0.000
 RMSDP=1.24D-04 MaxDP=4.48D-03 DE= 2.17D-03 OVMax= 1.51D-02

 Cycle   4  Pass 1  IDiag  1:
 RMSU=  5.32D-05    CP:  9.99D-01  8.15D-01  4.63D-01
 E= -7517.81466763029     Delta-E=       -0.003107625625 Rises=F Damp=F
 DIIS: error= 6.09D-04 at cycle   4 NSaved=   4.
 NSaved= 4 IEnMin= 4 EnMin= -7517.81466763029     IErMin= 4 ErrMin= 6.09D-04
 ErrMax= 6.09D-04  0.00D+00 EMaxC= 1.00D-01 BMatC= 3.12D-04 BMatP= 1.52D-03
 IDIUse=3 WtCom= 9.94D-01 WtEn= 6.09D-03
 Coeff-Com:  0.220D-03 0.457D+00 0.241D+00 0.302D+00
 Coeff-En:   0.000D+00 0.152D+00 0.000D+00 0.848D+00
 Coeff:      0.219D-03 0.455D+00 0.240D+00 0.305D+00
 Gap=     0.117 Goal=   None    Shift=    0.000
 RMSDP=4.38D-05 MaxDP=2.28D-03 DE=-3.11D-03 OVMax= 5.12D-03

 Cycle   5  Pass 1  IDiag  1:
 RMSU=  1.35D-05    CP:  9.99D-01  8.69D-01  4.27D-01  2.55D-01
 E= -7517.81493996936     Delta-E=       -0.000272339068 Rises=F Damp=F
 DIIS: error= 8.52D-05 at cycle   5 NSaved=   5.
 NSaved= 5 IEnMin= 5 EnMin= -7517.81493996936     IErMin= 5 ErrMin= 8.52D-05
 ErrMax= 8.52D-05  0.00D+00 EMaxC= 1.00D-01 BMatC= 1.24D-05 BMatP= 3.12D-04
 IDIUse=1 WtCom= 1.00D+00 WtEn= 0.00D+00
 Coeff-Com: -0.982D-03 0.222D+00 0.108D+00 0.206D+00 0.465D+00
 Coeff:     -0.982D-03 0.222D+00 0.108D+00 0.206D+00 0.465D+00
 Gap=     0.117 Goal=   None    Shift=    0.000
 RMSDP=9.62D-06 MaxDP=5.26D-04 DE=-2.72D-04 OVMax= 1.21D-03

 Cycle   6  Pass 1  IDiag  1:
 RMSU=  4.42D-06    CP:  9.99D-01  8.80D-01  4.20D-01  3.70D-01  6.27D-01
 E= -7517.81495181554     Delta-E=       -0.000011846176 Rises=F Damp=F
 DIIS: error= 2.13D-05 at cycle   6 NSaved=   6.
 NSaved= 6 IEnMin= 6 EnMin= -7517.81495181554     IErMin= 6 ErrMin= 2.13D-05
 ErrMax= 2.13D-05  0.00D+00 EMaxC= 1.00D-01 BMatC= 7.29D-07 BMatP= 1.24D-05
 IDIUse=1 WtCom= 1.00D+00 WtEn= 0.00D+00
 Coeff-Com: -0.587D-03 0.107D+00 0.529D-01 0.104D+00 0.281D+00 0.456D+00
 Coeff:     -0.587D-03 0.107D+00 0.529D-01 0.104D+00 0.281D+00 0.456D+00
 Gap=     0.117 Goal=   None    Shift=    0.000
 RMSDP=3.79D-06 MaxDP=1.40D-04 DE=-1.18D-05 OVMax= 4.95D-04

 Cycle   7  Pass 1  IDiag  1:
 RMSU=  2.91D-06    CP:  9.99D-01  8.82D-01  4.22D-01  3.66D-01  7.00D-01
                    CP:  5.19D-01
 E= -7517.81495212512     Delta-E=       -0.000000309579 Rises=F Damp=F
 DIIS: error= 1.92D-05 at cycle   7 NSaved=   7.
 NSaved= 7 IEnMin= 7 EnMin= -7517.81495212512     IErMin= 7 ErrMin= 1.92D-05
 ErrMax= 1.92D-05  0.00D+00 EMaxC= 1.00D-01 BMatC= 4.90D-07 BMatP= 7.29D-07
 IDIUse=1 WtCom= 1.00D+00 WtEn= 0.00D+00
 Coeff-Com: -0.174D-03 0.137D-01 0.825D-02 0.185D-01 0.857D-01 0.437D+00
 Coeff-Com:  0.437D+00
 Coeff:     -0.174D-03 0.137D-01 0.825D-02 0.185D-01 0.857D-01 0.437D+00
 Coeff:      0.437D+00
 Gap=     0.117 Goal=   None    Shift=    0.000
 RMSDP=2.25D-06 MaxDP=1.08D-04 DE=-3.10D-07 OVMax= 2.70D-04

 Cycle   8  Pass 1  IDiag  1:
 RMSU=  9.43D-07    CP:  9.99D-01  8.84D-01  4.25D-01  3.65D-01  7.16D-01
                    CP:  8.35D-01  5.39D-01
 E= -7517.81495273586     Delta-E=       -0.000000610748 Rises=F Damp=F
 DIIS: error= 5.24D-06 at cycle   8 NSaved=   8.
 NSaved= 8 IEnMin= 8 EnMin= -7517.81495273586     IErMin= 8 ErrMin= 5.24D-06
 ErrMax= 5.24D-06  0.00D+00 EMaxC= 1.00D-01 BMatC= 4.50D-08 BMatP= 4.90D-07
 IDIUse=1 WtCom= 1.00D+00 WtEn= 0.00D+00
 Coeff-Com:  0.336D-05-0.138D-01-0.562D-02-0.786D-02-0.945D-03 0.210D+00
 Coeff-Com:  0.295D+00 0.524D+00
 Coeff:      0.336D-05-0.138D-01-0.562D-02-0.786D-02-0.945D-03 0.210D+00
 Coeff:      0.295D+00 0.524D+00
 Gap=     0.117 Goal=   None    Shift=    0.000
 RMSDP=6.45D-07 MaxDP=3.08D-05 DE=-6.11D-07 OVMax= 6.90D-05

 Cycle   9  Pass 1  IDiag  1:
 RMSU=  2.58D-07    CP:  9.99D-01  8.84D-01  4.25D-01  3.68D-01  7.23D-01
                    CP:  8.58D-01  6.53D-01  5.72D-01
 E= -7517.81495278146     Delta-E=       -0.000000045593 Rises=F Damp=F
 DIIS: error= 1.37D-06 at cycle   9 NSaved=   9.
 NSaved= 9 IEnMin= 9 EnMin= -7517.81495278146     IErMin= 9 ErrMin= 1.37D-06
 ErrMax= 1.37D-06  0.00D+00 EMaxC= 1.00D-01 BMatC= 3.21D-09 BMatP= 4.50D-08
 IDIUse=1 WtCom= 1.00D+00 WtEn= 0.00D+00
 Coeff-Com:  0.210D-04-0.954D-02-0.414D-02-0.624D-02-0.110D-01 0.787D-01
 Coeff-Com:  0.128D+00 0.298D+00 0.526D+00
 Coeff:      0.210D-04-0.954D-02-0.414D-02-0.624D-02-0.110D-01 0.787D-01
 Coeff:      0.128D+00 0.298D+00 0.526D+00
 Gap=     0.117 Goal=   None    Shift=    0.000
 RMSDP=1.90D-07 MaxDP=1.07D-05 DE=-4.56D-08 OVMax= 2.60D-05

 Cycle  10  Pass 1  IDiag  1:
 RMSU=  1.05D-07    CP:  9.99D-01  8.85D-01  4.26D-01  3.70D-01  7.28D-01
                    CP:  8.62D-01  6.49D-01  6.63D-01  8.44D-01
 E= -7517.81495278443     Delta-E=       -0.000000002969 Rises=F Damp=F
 DIIS: error= 5.18D-07 at cycle  10 NSaved=  10.
 NSaved=10 IEnMin=10 EnMin= -7517.81495278443     IErMin=10 ErrMin= 5.18D-07
 ErrMax= 5.18D-07  0.00D+00 EMaxC= 1.00D-01 BMatC= 2.53D-10 BMatP= 3.21D-09
 IDIUse=1 WtCom= 1.00D+00 WtEn= 0.00D+00
 Coeff-Com:  0.975D-05-0.365D-02-0.158D-02-0.242D-02-0.560D-02 0.227D-01
 Coeff-Com:  0.409D-01 0.110D+00 0.279D+00 0.561D+00
 Coeff:      0.975D-05-0.365D-02-0.158D-02-0.242D-02-0.560D-02 0.227D-01
 Coeff:      0.409D-01 0.110D+00 0.279D+00 0.561D+00
 Gap=     0.117 Goal=   None    Shift=    0.000
 RMSDP=9.25D-08 MaxDP=3.82D-06 DE=-2.97D-09 OVMax= 9.94D-06

 Cycle  11  Pass 1  IDiag  1:
 RMSU=  7.49D-08    CP:  9.99D-01  8.85D-01  4.26D-01  3.70D-01  7.29D-01
                    CP:  8.66D-01  6.54D-01  6.63D-01  9.46D-01  6.28D-01
 E= -7517.81495278460     Delta-E=       -0.000000000171 Rises=F Damp=F
 DIIS: error= 6.80D-07 at cycle  11 NSaved=  11.
 NSaved=11 IEnMin=11 EnMin= -7517.81495278460     IErMin=10 ErrMin= 5.18D-07
 ErrMax= 6.80D-07  0.00D+00 EMaxC= 1.00D-01 BMatC= 3.41D-10 BMatP= 2.53D-10
 IDIUse=1 WtCom= 1.00D+00 WtEn= 0.00D+00
 Coeff-Com:  0.331D-06 0.474D-03 0.229D-03 0.283D-03-0.750D-03-0.103D-01
 Coeff-Com: -0.133D-01-0.189D-01 0.530D-01 0.575D+00 0.415D+00
 Coeff:      0.331D-06 0.474D-03 0.229D-03 0.283D-03-0.750D-03-0.103D-01
 Coeff:     -0.133D-01-0.189D-01 0.530D-01 0.575D+00 0.415D+00
 Gap=     0.117 Goal=   None    Shift=    0.000
 RMSDP=5.71D-08 MaxDP=1.85D-06 DE=-1.71D-10 OVMax= 8.20D-06

 Cycle  12  Pass 1  IDiag  1:
 RMSU=  1.72D-08    CP:  9.99D-01  8.85D-01  4.26D-01  3.70D-01  7.29D-01
                    CP:  8.69D-01  6.57D-01  6.70D-01  9.68D-01  9.62D-01
                    CP:  4.99D-01
 E= -7517.81495278518     Delta-E=       -0.000000000578 Rises=F Damp=F
 DIIS: error= 5.05D-08 at cycle  12 NSaved=  12.
 NSaved=12 IEnMin=12 EnMin= -7517.81495278518     IErMin=12 ErrMin= 5.05D-08
 ErrMax= 5.05D-08  0.00D+00 EMaxC= 1.00D-01 BMatC= 4.58D-12 BMatP= 2.53D-10
 IDIUse=1 WtCom= 1.00D+00 WtEn= 0.00D+00
 Coeff-Com: -0.539D-06 0.470D-03 0.217D-03 0.287D-03 0.106D-03-0.610D-02
 Coeff-Com: -0.883D-02-0.161D-01-0.347D-03 0.207D+00 0.193D+00 0.631D+00
 Coeff:     -0.539D-06 0.470D-03 0.217D-03 0.287D-03 0.106D-03-0.610D-02
 Coeff:     -0.883D-02-0.161D-01-0.347D-03 0.207D+00 0.193D+00 0.631D+00
 Gap=     0.117 Goal=   None    Shift=    0.000
 RMSDP=8.06D-09 MaxDP=3.17D-07 DE=-5.78D-10 OVMax= 1.10D-06

 SCF Done:  E(RPBE1PBE) =  -7517.81495279     A.U. after   12 cycles
            NFock= 12  Conv=0.81D-08     -V/T= 2.1284
 KE= 6.662161200139D+03 PE=-2.483574106488D+04 EE= 7.033462699668D+03
 Leave Link  502 at Tue Mar  6 15:26:35 2018, MaxMem=   536870912 cpu:      2526.3
 (Enter /share/apps//mg09/l701.exe)
 Compute integral first derivatives.
 ... and contract with generalized density number  0.
   1 Symmetry operations used in ECPInt.
 ECPInt:  NShTT=   10440 NPrTT=   41973 LenC2=    9716 LenP2D=   27605.
 LDataN:  DoStor=T MaxTD1= 9 Len=  602
 Leave Link  701 at Tue Mar  6 15:26:56 2018, MaxMem=   536870912 cpu:        85.1
 (Enter /share/apps//mg09/l702.exe)
 L702 exits ... SP integral derivatives will be done elsewhere.
 Leave Link  702 at Tue Mar  6 15:26:56 2018, MaxMem=   536870912 cpu:         0.0
 (Enter /share/apps//mg09/l703.exe)
 Compute integral first derivatives, UseDBF=F ICtDFT=           0.
 Integral derivatives from FoFJK, PRISM(SPDF).
 Calling FoFJK, ICntrl=      2127 FMM=F ISym2X=0 I1Cent= 0 IOpClX= 0 NMat=1 NMatS=1 NMatT=0.
 FoFJK:  IHMeth= 1 ICntrl=    2127 DoSepK=F KAlg= 0 I1Cent=   0 FoldK=F
 IRaf=         0 NMat=   1 IRICut=       1 DoRegI=T DoRafI=F ISym2E= 0.
 FoFCou: FMM=F IPFlag=           0 FMFlag=      100000 FMFlg1=         800
         NFxFlg=           0 DoJE=F BraDBF=F KetDBF=F FulRan=T
         wScrn=  0.000000 ICntrl=    2127 IOpCl=  0 I1Cent=           0 NGrid=           0
         NMat0=    1 NMatS0=      1 NMatT0=    0 NMatD0=    1 NMtDS0=    0 NMtDT0=    0
 Symmetry not used in FoFCou.
 Defaulting to unpruned grid for atomic number  83.
 Defaulting to unpruned grid for atomic number  83.
 Defaulting to unpruned grid for atomic number  83.
 Defaulting to unpruned grid for atomic number  83.
 Leave Link  703 at Tue Mar  6 15:30:44 2018, MaxMem=   536870912 cpu:       881.7
 (Enter /share/apps//mg09/l716.exe)
 Dipole        = 7.00841441D-02-3.76294320D-01-3.88170709D-01
 ***** Axes restored to original set *****
 -------------------------------------------------------------------
 Center     Atomic                   Forces (Hartrees/Bohr)
 Number     Number              X              Y              Z
 -------------------------------------------------------------------
      1       83          -0.002288767    0.000935851    0.002021922
      2       83           0.002399672   -0.000015998    0.001057358
      3       83           0.000721890    0.001525311    0.001208778
      4       32           0.006856850    0.001175701   -0.004528317
      5       83          -0.000792452    0.000405716    0.000558842
      6       50           0.001103111    0.001985322    0.003751587
      7       32          -0.005157129    0.004886084   -0.004430185
      8       32          -0.001430448   -0.007764532   -0.003441790
      9       50          -0.001412726   -0.003133455    0.003801806
 -------------------------------------------------------------------
 Cartesian Forces:  Max     0.007764532 RMS     0.003227052
 Leave Link  716 at Tue Mar  6 15:30:44 2018, MaxMem=   536870912 cpu:         0.1
 (Enter /share/apps//mg09/l103.exe)

 GradGradGradGradGradGradGradGradGradGradGradGradGradGradGradGradGradGrad
 Berny optimization.
 Search for a local minimum.
 Step number   2 out of a maximum of  100
 All quantities printed in internal units (Hartrees-Bohrs-Radians)
 Update second derivatives using D2CorN and points    1    2
 DE= -5.60D-03 DEPred=-4.11D-03 R= 1.36D+00
 TightC=F SS=  1.41D+00  RLast= 2.19D-01 DXNew= 5.0454D-01 6.5825D-01
 Trust test= 1.36D+00 RLast= 2.19D-01 DXMaxT set to 5.05D-01
 ITU=  1  0
     Eigenvalues ---    0.07548   0.09169   0.11943   0.12384   0.12655
     Eigenvalues ---    0.12795   0.14003   0.15419   0.16252   0.16576
     Eigenvalues ---    0.18693   0.21198   0.22086   0.23735   0.24592
     Eigenvalues ---    0.25205   0.27516   0.29639   0.30921   0.31167
     Eigenvalues ---    0.32019
 RFO step:  Lambda=-4.13898776D-04 EMin= 7.54793991D-02
 Quartic linear search produced a step of  0.60906.
 TrRot=  0.000013 -0.000009 -0.000319  0.504773  0.000065 -0.504785
 MatCor failed.
 Variable       Old X    -DE/DX   Delta X   Delta X   Delta X     New X
                                 (Linear)    (Quad)   (Total)
    X1        4.57441  -0.00229  -0.03791   0.01212  -0.02572   4.54869
    Y1        1.58785   0.00094  -0.00928   0.01118   0.00185   1.58970
    Z1        0.66986   0.00202   0.00072   0.01243   0.01252   0.68238
    X2       -3.94692   0.00240   0.03111  -0.01033   0.02081  -3.92611
    Y2        2.35660  -0.00002  -0.01666   0.00468  -0.01195   2.34464
    Z2       -0.32605   0.00106   0.00642   0.00073   0.00699  -0.31906
    X3       -2.65013   0.00072   0.01727  -0.00959   0.00770  -2.64243
    Y3       -3.46922   0.00153   0.03040  -0.00862   0.02183  -3.44739
    Z3        0.73134   0.00121  -0.00372   0.00623   0.00245   0.73379
    X4       -2.77952   0.00686   0.03947   0.01347   0.05321  -2.72631
    Y4        0.30026   0.00118   0.00575   0.00559   0.01151   0.31177
    Z4        4.60684  -0.00453  -0.03730  -0.00263  -0.04011   4.56673
    X5        2.66730  -0.00079  -0.02074   0.00853  -0.01231   2.65500
    Y5       -3.39144   0.00041   0.02841  -0.01574   0.01259  -3.37885
    Z5       -1.18618   0.00056   0.00985  -0.00321   0.00627  -1.17991
    X6       -1.43742   0.00110   0.01464  -0.00252   0.01187  -1.42555
    Y6       -1.00224   0.00199   0.01651   0.00347   0.01985  -0.98239
    Z6       -4.41377   0.00375   0.04179  -0.00280   0.03878  -4.37499
    X7        1.82032  -0.00516  -0.02488  -0.00873  -0.03338   1.78694
    Y7       -1.52500   0.00489   0.02499   0.00839   0.03348  -1.49152
    Z7        4.08793  -0.00443  -0.02975  -0.00736  -0.03748   4.05045
    X8        0.28687  -0.00143  -0.00770  -0.00286  -0.01033   0.27654
    Y8        3.93348  -0.00776  -0.04035  -0.01275  -0.05302   3.88047
    Z8        2.90446  -0.00344  -0.02286  -0.00598  -0.02930   2.87516
    X9        0.78239  -0.00141  -0.01127  -0.00049  -0.01186   0.77053
    Y9        4.15085  -0.00313  -0.03977   0.00374  -0.03614   4.11471
    Z9       -2.75791   0.00380   0.03486   0.00552   0.03988  -2.71803
         Item               Value     Threshold  Converged?
 Maximum Force            0.007765     0.000450     NO 
 RMS     Force            0.003227     0.000300     NO 
 Maximum Displacement     0.053211     0.001800     NO 
 RMS     Displacement     0.026806     0.001200     NO 
 Predicted change in Energy=-1.206711D-03
 Lowest energy point so far.  Saving SCF results.
 GradGradGradGradGradGradGradGradGradGradGradGradGradGradGradGradGradGrad

 Leave Link  103 at Tue Mar  6 15:30:44 2018, MaxMem=   536870912 cpu:         0.1
 (Enter /share/apps//mg09/l202.exe)
                          Input orientation:                          
 ---------------------------------------------------------------------
 Center     Atomic      Atomic             Coordinates (Angstroms)
 Number     Number       Type             X           Y           Z
 ---------------------------------------------------------------------
      1         83           0        2.407063    0.841233    0.361101
      2         83           0       -2.077609    1.240732   -0.168838
      3         83           0       -1.398315   -1.824281    0.388305
      4         32           0       -1.442701    0.164981    2.416609
[...]
     X                                             X                   X                                                             
     X                                             X                                                                                 
     X                                                                                                                               
     X                                                                                                                               
     X                                                                                                                               
     X                                                                                                                               
     X                                                                                                                               
     X                                                                                                                               
     X                                                                                                                               
     X                                                                                                                               
     X                                                                                                                               
     X                                                                                                                               
     X                                                                                                                               
     X                                                                                                                               
     X                                                                                                                               
 
 ***** Axes restored to original set *****
 -------------------------------------------------------------------
 Center     Atomic                   Forces (Hartrees/Bohr)
 Number     Number              X              Y              Z
 -------------------------------------------------------------------
      1       83          -0.000002250    0.000007584    0.000050508
      2       83          -0.000023128    0.000106681    0.000027252
      3       83          -0.000056014   -0.000091348    0.000003048
      4       32           0.000115183   -0.000004152   -0.000042224
      5       83           0.000003221   -0.000033179   -0.000011957
      6       50           0.000004618    0.000008628    0.000036329
      7       32           0.000015565    0.000033157   -0.000007458
      8       32          -0.000067276    0.000028626    0.000015491
      9       50           0.000010081   -0.000055998   -0.000070988
 -------------------------------------------------------------------
 Cartesian Forces:  Max     0.000115183 RMS     0.000047046
 Force constants in Cartesian coordinates: 
                1             2             3             4             5 
      1  0.849665D-01
      2  0.782150D-02  0.697352D-01
      3 -0.721074D-02 -0.215219D-02  0.428748D-01
      4 -0.450218D-02  0.247440D-02 -0.149365D-02  0.799384D-01
      5 -0.568881D-03 -0.819493D-03 -0.407621D-02 -0.957223D-02  0.421573D-01
      6  0.568908D-03 -0.150912D-02 -0.112306D-02  0.556924D-03 -0.511649D-02
      7 -0.213272D-02 -0.868373D-02 -0.256901D-02 -0.294064D-02  0.282416D-02
      8 -0.123779D-03  0.120771D-02  0.232555D-02  0.491364D-02 -0.162449D-01
      9 -0.647740D-03  0.253566D-02 -0.253667D-02  0.100221D-02  0.367706D-02
     10 -0.413264D-02  0.154526D-03  0.372433D-02 -0.535282D-02  0.464231D-02
     11 -0.115054D-02 -0.508345D-02  0.710362D-03  0.448610D-02 -0.362045D-02
     12  0.185586D-03 -0.467345D-03 -0.158564D-02 -0.539568D-02  0.130440D-01
     13 -0.984387D-02 -0.142509D-01 -0.172573D-02 -0.351782D-02  0.375287D-02
     14 -0.152068D-01 -0.383116D-01 -0.145015D-01 -0.378754D-03 -0.330526D-02
     15 -0.266177D-02 -0.168135D-01 -0.436601D-02  0.989209D-03  0.368199D-02
     16 -0.884409D-03 -0.613631D-03 -0.595468D-02 -0.691018D-02  0.124630D-01
     17  0.501080D-03 -0.179833D-02 -0.169323D-02  0.105306D-01 -0.834598D-02
     18  0.343262D-03  0.102558D-03 -0.118486D-02  0.479664D-02 -0.132406D-01
     19 -0.141891D-01 -0.106844D-01  0.126161D-01 -0.387770D-02  0.310054D-02
     20 -0.110103D-01 -0.117217D-01  0.154322D-01  0.153910D-03 -0.590876D-02
     21  0.109392D-01  0.159898D-01 -0.154002D-01 -0.210719D-02  0.144142D-02
     22 -0.288424D-01  0.122623D-01  0.147537D-01 -0.186099D-01 -0.584300D-02
     23  0.102367D-01 -0.663846D-02 -0.641769D-02 -0.357332D-02 -0.131199D-02
     24  0.114183D-01 -0.939991D-02 -0.426757D-02 -0.114869D-01 -0.864048D-02
     25 -0.204392D-01  0.115199D-01 -0.121403D-01 -0.342271D-01 -0.107988D-01
     26  0.950091D-02 -0.656992D-02  0.103727D-01 -0.903437D-02 -0.260048D-02
     27 -0.129351D-01  0.117140D-01 -0.124108D-01  0.131384D-01  0.922928D-02
                6             7             8             9            10 
      6  0.648004D-01
      7  0.883152D-03  0.642528D-01
      8  0.317741D-02  0.172202D-01  0.645920D-01
      9 -0.394344D-03 -0.165647D-01  0.430633D-02  0.523139D-01
     10 -0.601307D-02 -0.230723D-02 -0.245413D-02  0.223398D-02  0.683214D-01
     11  0.120120D-01 -0.122139D-02 -0.198450D-01 -0.172600D-01 -0.994474D-03
     12 -0.294181D-01  0.362246D-02 -0.187250D-01 -0.187823D-01 -0.177416D-01
     13  0.331176D-02 -0.431349D-01 -0.284186D-02  0.142990D-01 -0.260842D-02
     14  0.433792D-03 -0.336473D-02 -0.295791D-02 -0.272087D-02 -0.389034D-03
     15  0.147896D-02  0.185178D-01 -0.443335D-02 -0.400034D-02  0.143045D-02
     16  0.698985D-02  0.685473D-03 -0.650566D-02  0.520751D-02  0.140745D-02
     17 -0.121182D-01 -0.494634D-02 -0.112848D-01  0.982734D-02  0.126004D-02
     18 -0.141343D-01  0.364941D-02  0.118796D-01 -0.210781D-01 -0.314907D-02
     19 -0.749085D-02 -0.758013D-02 -0.497055D-02 -0.542345D-02 -0.385091D-01
     20  0.275380D-02 -0.650432D-02 -0.159809D-02 -0.491091D-04  0.139810D-01
     21 -0.342660D-02 -0.746099D-02  0.908676D-03 -0.619781D-02  0.922063D-02
     22 -0.134993D-01 -0.454386D-02 -0.267935D-02 -0.410873D-02 -0.151980D-01
     23 -0.600653D-02  0.251191D-02 -0.929251D-02 -0.597537D-02 -0.153037D-01
     24 -0.106026D-01 -0.974455D-03 -0.483979D-03  0.818026D-03  0.119644D-01
     25  0.146926D-01 -0.229883D-02 -0.255854D-02  0.400197D-02 -0.162076D-02
     26  0.637330D-02  0.216422D-02 -0.457650D-02  0.565894D-02 -0.896549D-03
     27 -0.718029D-02  0.896357D-03  0.104482D-02 -0.142365D-03 -0.167003D-02
               11            12            13            14            15 
     11  0.514595D-01
     12 -0.169127D-02  0.698597D-01
     13  0.400084D-02  0.108627D-02  0.783840D-01
     14 -0.840367D-03  0.119269D-02 -0.522906D-02  0.622060D-01
     15 -0.320775D-02 -0.279784D-02 -0.464683D-02  0.198775D-01  0.461775D-01
     16  0.152370D-02  0.246053D-02 -0.195442D-01  0.120292D-01 -0.136592D-01
     17  0.101974D-02  0.480257D-03  0.136036D-01 -0.647441D-02  0.629431D-02
     18 -0.130039D-02 -0.382774D-02 -0.126952D-01  0.546701D-02 -0.131763D-01
     19  0.162576D-01  0.406157D-02 -0.224601D-02  0.450762D-02  0.157328D-03
     20 -0.392807D-02 -0.551494D-03  0.597853D-02 -0.602459D-03 -0.729362D-02
     21 -0.175755D-02 -0.327719D-02  0.247619D-02 -0.610090D-02 -0.190394D-01
     22 -0.194235D-01  0.105166D-01  0.367921D-02  0.602905D-02  0.266246D-02
     23 -0.175429D-01  0.791274D-02 -0.308561D-02 -0.690178D-02 -0.105718D-02
     24  0.109345D-01 -0.669502D-02 -0.132310D-02 -0.146473D-02 -0.529399D-02
     25 -0.347828D-02  0.120419D-02 -0.116799D-02  0.200247D-02 -0.278942D-02
     26 -0.161900D-02 -0.119460D-02 -0.192840D-02 -0.281229D-02  0.295156D-02
     27  0.156000D-02 -0.347580D-02 -0.782334D-03 -0.218302D-02  0.101746D-02
               16            17            18            19            20 
     16  0.340873D-01
     17 -0.733465D-02  0.456184D-01
     18  0.832348D-02  0.373390D-02  0.669012D-01
     19 -0.227654D-02 -0.122779D-02  0.212811D-03  0.660739D-01
     20 -0.342122D-02  0.972651D-03 -0.248709D-02 -0.784550D-02  0.359564D-01
     21 -0.215879D-02  0.478597D-02 -0.490295D-02 -0.574991D-02 -0.137001D-01
     22 -0.370850D-02 -0.307165D-02  0.201961D-03  0.354234D-03  0.373814D-02
     23  0.298193D-03 -0.123047D-02  0.372061D-03  0.166242D-02 -0.895228D-02
     24  0.711507D-03 -0.488651D-02 -0.334306D-02 -0.192992D-02  0.249738D-02
     25 -0.285637D-02 -0.931490D-02 -0.168332D-02  0.225037D-02  0.492971D-02
     26 -0.843895D-02 -0.184768D-01 -0.452702D-02 -0.799893D-03 -0.421773D-02
     27 -0.192020D-02 -0.642384D-02 -0.525384D-02  0.354636D-02  0.339806D-02
               21            22            23            24            25 
     21  0.615226D-01
     22 -0.261350D-02  0.642600D-01
     23 -0.141182D-02  0.103216D-01  0.547007D-01
     24 -0.401752D-02 -0.100692D-01  0.115300D-01  0.522167D-01
     25 -0.254568D-02  0.260924D-02 -0.306827D-02  0.168940D-02  0.577506D-01
     26 -0.155507D-03 -0.133358D-02 -0.283032D-02 -0.863277D-04  0.107666D-01
     27 -0.526089D-02  0.215595D-02  0.105374D-02 -0.188149D-01 -0.242944D-02
               26            27 
     26  0.437031D-01
     27 -0.193930D-01  0.515214D-01
 Leave Link  716 at Tue Mar  6 18:46:20 2018, MaxMem=   536870912 cpu:         0.1
 (Enter /share/apps//mg09/l103.exe)

 GradGradGradGradGradGradGradGradGradGradGradGradGradGradGradGradGradGrad
 Berny optimization.
 Search for a local minimum.
 Step number   1 out of a maximum of    2
 All quantities printed in internal units (Hartrees-Bohrs-Radians)
 Second derivative matrix not updated -- analytic derivatives used.
 ITU=  0
     Eigenvalues ---    0.00271   0.01573   0.02486   0.03680   0.04148
     Eigenvalues ---    0.04693   0.05126   0.05619   0.05860   0.06255
     Eigenvalues ---    0.06518   0.06760   0.08468   0.09182   0.09752
     Eigenvalues ---    0.10524   0.11945   0.12552   0.13143   0.14087
     Eigenvalues ---    0.14805
 Angle between quadratic step and forces=  63.72 degrees.
 Linear search not attempted -- first point.
 TrRot= -0.000033 -0.000007 -0.000051  0.000006 -0.000020  0.000006
 Variable       Old X    -DE/DX   Delta X   Delta X   Delta X     New X
                                 (Linear)    (Quad)   (Total)
    X1        4.58687   0.00000   0.00000   0.00140   0.00133   4.58820
    Y1        1.59634   0.00001   0.00000   0.00224   0.00229   1.59864
    Z1        0.68731   0.00005   0.00000   0.00745   0.00749   0.69479
    X2       -3.95519  -0.00002   0.00000   0.00147   0.00141  -3.95377
    Y2        2.36603   0.00011   0.00000   0.00646   0.00640   2.37243
    Z2       -0.32760   0.00003   0.00000   0.00039   0.00026  -0.32735
    X3       -2.63126  -0.00006   0.00000   0.00316   0.00315  -2.62811
    Y3       -3.47656  -0.00009   0.00000  -0.00383  -0.00387  -3.48044
    Z3        0.75073   0.00000   0.00000   0.00180   0.00170   0.75243
    X4       -2.73676   0.00012   0.00000   0.00070   0.00057  -2.73619
    Y4        0.32569   0.00000   0.00000  -0.00081  -0.00085   0.32484
    Z4        4.56164  -0.00004   0.00000  -0.00209  -0.00220   4.55944
    X5        2.66327   0.00000   0.00000   0.00100   0.00103   2.66431
    Y5       -3.38530  -0.00003   0.00000   0.00614   0.00617  -3.37913
    Z5       -1.18737  -0.00001   0.00000  -0.00480  -0.00480  -1.19217
    X6       -1.42735   0.00000   0.00000  -0.00803  -0.00797  -1.43531
    Y6       -0.97128   0.00001   0.00000  -0.00209  -0.00211  -0.97339
    Z6       -4.35398   0.00004   0.00000   0.00187   0.00179  -4.35219
    X7        1.75907   0.00002   0.00000  -0.00095  -0.00104   1.75803
    Y7       -1.45118   0.00003   0.00000  -0.00269  -0.00267  -1.45385
    Z7        4.02333  -0.00001   0.00000  -0.00060  -0.00062   4.02271
    X8        0.29219  -0.00007   0.00000  -0.00255  -0.00268   0.28951
    Y8        3.82139   0.00003   0.00000   0.00196   0.00195   3.82334
    Z8        2.86224   0.00002   0.00000  -0.00011  -0.00015   2.86209
    X9        0.76645   0.00001   0.00000   0.00421   0.00418   0.77063
    Y9        4.11602  -0.00006   0.00000  -0.00731  -0.00731   4.10871
    Z9       -2.69976  -0.00007   0.00000  -0.00344  -0.00347  -2.70323
         Item               Value     Threshold  Converged?
 Maximum Force            0.000115     0.000450     YES
 RMS     Force            0.000047     0.000300     YES
 Maximum Displacement     0.007965     0.001800     NO 
 RMS     Displacement     0.003730     0.001200     NO 
 Predicted change in Energy=-1.043427D-06
 GradGradGradGradGradGradGradGradGradGradGradGradGradGradGradGradGradGrad

 Leave Link  103 at Tue Mar  6 18:46:20 2018, MaxMem=   536870912 cpu:         0.1
 (Enter /share/apps//mg09/l9999.exe)
 1\1\GINC-COMPUTE-0-0\Freq\RPBE1PBE\def2TZVP\Bi4Ge3Sn2\RODRIGO\06-Mar-2
 018\0\\#P Geom=AllCheck Guess=TCheck SCRF=Check GenChk RPBE1PBE/def2TZ
 VP Freq\\01Final_coords.xyz_40\\0,1\Bi,2.4272654837,0.8447487575,0.363
 7074975\Bi,-2.0929958653,1.2520466188,-0.1733609934\Bi,-1.3924034565,-
 1.8397185587,0.3972677947\Ge,-1.4482300667,0.172348464,2.4139133784\Bi
 ,1.4093439551,-1.7914227918,-0.6283278739\Sn,-0.7553208182,-0.51398176
 13,-2.3040277095\Ge,0.9308590155,-0.7679300012,2.1290539368\Ge,0.15462
 15399,2.022190039,1.5146312669\Sn,0.4055872133,2.1781042337,-1.4286502
 974\\Version=ES64L-G09RevD.01\State=1-A\HF=-7517.8165827\RMSD=9.230e-0
 9\RMSF=4.705e-05\ZeroPoint=0.0057917\Thermal=0.0232954\Dipole=0.088092
 4,-0.3872282,-0.393885\DipoleDeriv=0.0926546,0.0902479,0.058796,0.0773
 226,-0.1172703,0.0705937,0.0766593,0.1045194,-0.0646342,0.0959203,-0.0
 351631,-0.0103208,0.0468716,0.1250153,-0.0349895,-0.0582729,-0.0093999
 ,-0.1379706,0.0940501,0.0448011,0.0236466,-0.0763651,-0.0157799,-0.011
 8753,0.0421172,-0.01083,0.0226047,-0.0433815,0.0040741,-0.2763241,-0.0
 176671,-0.1380764,0.0163981,-0.104133,-0.0018235,0.110721,-0.0956941,-
 0.067069,-0.1007849,-0.0319739,0.0896659,-0.0324739,-0.0525146,-0.0765
 407,-0.1170118,-0.0243062,0.0024083,0.1629231,0.0281232,-0.1296181,0.1
 374705,0.1013205,0.1162376,0.2184982,-0.0050418,0.0200415,0.1146525,0.
 0375834,0.0052781,-0.026262,-0.0143157,0.0426463,-0.0288896,-0.0684495
 ,-0.0528785,0.0943192,-0.0386256,-0.0047379,0.0625173,0.0596913,-0.024
 9609,-0.00507,-0.0457518,-0.0064622,-0.0669077,-0.025269,0.1855233,-0.
 1813789,-0.050552,-0.1398484,0.0017524\Polar=376.5646448,4.3364334,381
 .0467323,0.9765468,-4.3813555,381.8454466\PG=C01 [X(Bi4Ge3Sn2)]\NImag=
 0\\0.08496653,0.00782150,0.06973518,-0.00721074,-0.00215219,0.04287485
 ,-0.00450218,0.00247440,-0.00149365,0.07993839,-0.00056888,-0.00081949
 ,-0.00407621,-0.00957223,0.04215733,0.00056891,-0.00150912,-0.00112306
 ,0.00055692,-0.00511649,0.06480045,-0.00213272,-0.00868373,-0.00256901
 ,-0.00294064,0.00282416,0.00088315,0.06425280,-0.00012378,0.00120771,0
 .00232555,0.00491364,-0.01624492,0.00317741,0.01722022,0.06459200,-0.0
 0064774,0.00253566,-0.00253667,0.00100221,0.00367706,-0.00039434,-0.01
 656470,0.00430633,0.05231387,-0.00413264,0.00015453,0.00372433,-0.0053
 5282,0.00464231,-0.00601307,-0.00230723,-0.00245413,0.00223398,0.06832
 144,-0.00115054,-0.00508345,0.00071036,0.00448610,-0.00362045,0.012012
 05,-0.00122139,-0.01984502,-0.01725996,-0.00099447,0.05145951,0.000185
 59,-0.00046734,-0.00158564,-0.00539568,0.01304403,-0.02941814,0.003622
 46,-0.01872502,-0.01878230,-0.01774156,-0.00169127,0.06985966,-0.00984
 387,-0.01425088,-0.00172573,-0.00351782,0.00375287,0.00331176,-0.04313
 487,-0.00284186,0.01429895,-0.00260842,0.00400084,0.00108627,0.0783840
 1,-0.01520678,-0.03831156,-0.01450150,-0.00037875,-0.00330526,0.000433
 79,-0.00336473,-0.00295791,-0.00272087,-0.00038903,-0.00084037,0.00119
 269,-0.00522906,0.06220604,-0.00266177,-0.01681350,-0.00436601,0.00098
 921,0.00368199,0.00147896,0.01851778,-0.00443335,-0.00400034,0.0014304
 5,-0.00320775,-0.00279784,-0.00464683,0.01987753,0.04617749,-0.0008844
 1,-0.00061363,-0.00595468,-0.00691018,0.01246299,0.00698985,0.00068547
 ,-0.00650566,0.00520751,0.00140745,0.00152370,0.00246053,-0.01954424,0
 .01202922,-0.01365921,0.03408732,0.00050108,-0.00179833,-0.00169323,0.
 01053061,-0.00834598,-0.01211819,-0.00494634,-0.01128477,0.00982734,0.
 00126004,0.00101974,0.00048026,0.01360359,-0.00647441,0.00629431,-0.00
 733465,0.04561841,0.00034326,0.00010256,-0.00118486,0.00479664,-0.0132
 4060,-0.01413432,0.00364941,0.01187957,-0.02107807,-0.00314907,-0.0013
 0039,-0.00382774,-0.01269518,0.00546701,-0.01317633,0.00832348,0.00373
 390,0.06690115,-0.01418907,-0.01068442,0.01261606,-0.00387770,0.003100
 54,-0.00749085,-0.00758013,-0.00497055,-0.00542345,-0.03850907,0.01625
 756,0.00406157,-0.00224601,0.00450762,0.00015733,-0.00227654,-0.001227
 79,0.00021281,0.06607390,-0.01101026,-0.01172167,0.01543221,0.00015391
 ,-0.00590876,0.00275380,-0.00650432,-0.00159809,-0.00004911,0.01398100
 ,-0.00392807,-0.00055149,0.00597853,-0.00060246,-0.00729362,-0.0034212
 2,0.00097265,-0.00248709,-0.00784550,0.03595641,0.01093924,0.01598984,
 -0.01540023,-0.00210719,0.00144142,-0.00342660,-0.00746099,0.00090868,
 -0.00619781,0.00922063,-0.00175755,-0.00327719,0.00247619,-0.00610090,
 -0.01903940,-0.00215879,0.00478597,-0.00490295,-0.00574991,-0.01370014
 ,0.06152259,-0.02884244,0.01226230,0.01475373,-0.01860995,-0.00584300,
 -0.01349927,-0.00454386,-0.00267935,-0.00410873,-0.01519796,-0.0194235
 1,0.01051664,0.00367921,0.00602905,0.00266246,-0.00370850,-0.00307165,
 0.00020196,0.00035423,0.00373814,-0.00261350,0.06426002,0.01023675,-0.
 00663846,-0.00641769,-0.00357332,-0.00131199,-0.00600653,0.00251191,-0
 .00929251,-0.00597537,-0.01530368,-0.01754290,0.00791274,-0.00308561,-
 0.00690178,-0.00105718,0.00029819,-0.00123047,0.00037206,0.00166242,-0
 .00895228,-0.00141182,0.01032160,0.05470072,0.01141835,-0.00939991,-0.
 00426757,-0.01148690,-0.00864048,-0.01060265,-0.00097446,-0.00048398,0
 .00081803,0.01196435,0.01093451,-0.00669502,-0.00132310,-0.00146473,-0
 .00529399,0.00071151,-0.00488651,-0.00334306,-0.00192992,0.00249738,-0
 .00401752,-0.01006923,0.01153004,0.05221666,-0.02043920,0.01151994,-0.
 01214030,-0.03422710,-0.01079876,0.01469260,-0.00229883,-0.00255854,0.
 00400197,-0.00162076,-0.00347828,0.00120419,-0.00116799,0.00200247,-0.
 00278942,-0.00285637,-0.00931490,-0.00168332,0.00225037,0.00492971,-0.
 00254568,0.00260924,-0.00306827,0.00168940,0.05775063,0.00950091,-0.00
 656992,0.01037269,-0.00903437,-0.00260048,0.00637330,0.00216422,-0.004
 57650,0.00565894,-0.00089655,-0.00161900,-0.00119460,-0.00192840,-0.00
 281229,0.00295156,-0.00843895,-0.01847683,-0.00452702,-0.00079989,-0.0
 0421773,-0.00015551,-0.00133358,-0.00283032,-0.00008633,0.01076661,0.0
 4370307,-0.01293509,0.01171401,-0.01241081,0.01313844,0.00922928,-0.00
 718029,0.00089636,0.00104482,-0.00014237,-0.00167003,0.00156000,-0.003
 47580,-0.00078233,-0.00218302,0.00101746,-0.00192020,-0.00642384,-0.00
 525384,0.00354636,0.00339806,-0.00526089,0.00215595,0.00105374,-0.0188
 1489,-0.00242944,-0.01939304,0.05152142\\0.00000225,-0.00000758,-0.000
 05051,0.00002313,-0.00010668,-0.00002725,0.00005601,0.00009135,-0.0000
 0305,-0.00011518,0.00000415,0.00004222,-0.00000322,0.00003318,0.000011
 96,-0.00000462,-0.00000863,-0.00003633,-0.00001557,-0.00003316,0.00000
 746,0.00006728,-0.00002863,-0.00001549,-0.00001008,0.00005600,0.000070
 99\\\@


 A true friend is someone who is there for
 you when he'd rather be anywhere else.
                               -- Len Wein
 Job cpu time:       0 days  4 hours 31 minutes  1.4 seconds.
 File lengths (MBytes):  RWF=    299 Int=      0 D2E=      0 Chk=     16 Scr=      1
 Normal termination of Gaussian 09 at Tue Mar  6 18:46:22 2018.
