 Entering Gaussian System, Link 0=/share/apps/mg09/g09
 Initial command:
 /share/apps//mg09/l1.exe "/state/partition1/gauss_tmp/Gau-18604.inp" -scrdir="/state/partition1/gauss_tmp/"
 Entering Link 1 = /share/apps//mg09/l1.exe PID=     18606.
  
 Copyright (c) 1988,1990,1992,1993,1995,1998,2003,2009,2013,
            Gaussian, Inc.  All Rights Reserved.
  
 This is part of the Gaussian(R) 09 program.  It is based on
 the Gaussian(R) 03 system (copyright 2003, Gaussian, Inc.),
 the Gaussian(R) 98 system (copyright 1998, Gaussian, Inc.),
 the Gaussian(R) 94 system (copyright 1995, Gaussian, Inc.),
 the Gaussian 92(TM) system (copyright 1992, Gaussian, Inc.),
 the Gaussian 90(TM) system (copyright 1990, Gaussian, Inc.),
 the Gaussian 88(TM) system (copyright 1988, Gaussian, Inc.),
 the Gaussian 86(TM) system (copyright 1986, Carnegie Mellon
 University), and the Gaussian 82(TM) system (copyright 1983,
 Carnegie Mellon University). Gaussian is a federally registered
 trademark of Gaussian, Inc.
  
 This software contains proprietary and confidential information,
 including trade secrets, belonging to Gaussian, Inc.
  
 This software is provided under written license and may be
 used, copied, transmitted, or stored only in accord with that
 written license.
  
 The following legend is applicable only to US Government
 contracts under FAR:
  
                    RESTRICTED RIGHTS LEGEND
  
 Use, reproduction and disclosure by the US Government is
 subject to restrictions as set forth in subparagraphs (a)
 and (c) of the Commercial Computer Software - Restricted
 Rights clause in FAR 52.227-19.
  
 Gaussian, Inc.
 340 Quinnipiac St., Bldg. 40, Wallingford CT 06492
  
  
 ---------------------------------------------------------------
 Warning -- This program may not be used in any manner that
 competes with the business of Gaussian, Inc. or will provide
 assistance to any competitor of Gaussian, Inc.  The licensee
 of this program is prohibited from giving any competitor of
 Gaussian, Inc. access to this program.  By using this program,
 the user acknowledges that Gaussian, Inc. is engaged in the
 business of creating and licensing software in the field of
 computational chemistry and represents and warrants to the
 licensee that it is not a competitor of Gaussian, Inc. and that
 it will not use this program in any manner prohibited above.
 ---------------------------------------------------------------
  

 Cite this work as:
 Gaussian 09, Revision D.01,
 M. J. Frisch, G. W. Trucks, H. B. Schlegel, G. E. Scuseria, 
 M. A. Robb, J. R. Cheeseman, G. Scalmani, V. Barone, B. Mennucci, 
 G. A. Petersson, H. Nakatsuji, M. Caricato, X. Li, H. P. Hratchian, 
 A. F. Izmaylov, J. Bloino, G. Zheng, J. L. Sonnenberg, M. Hada, 
 M. Ehara, K. Toyota, R. Fukuda, J. Hasegawa, M. Ishida, T. Nakajima, 
 Y. Honda, O. Kitao, H. Nakai, T. Vreven, J. A. Montgomery, Jr., 
 J. E. Peralta, F. Ogliaro, M. Bearpark, J. J. Heyd, E. Brothers, 
 K. N. Kudin, V. N. Staroverov, T. Keith, R. Kobayashi, J. Normand, 
 K. Raghavachari, A. Rendell, J. C. Burant, S. S. Iyengar, J. Tomasi, 
 M. Cossi, N. Rega, J. M. Millam, M. Klene, J. E. Knox, J. B. Cross, 
 V. Bakken, C. Adamo, J. Jaramillo, R. Gomperts, R. E. Stratmann, 
 O. Yazyev, A. J. Austin, R. Cammi, C. Pomelli, J. W. Ochterski, 
 R. L. Martin, K. Morokuma, V. G. Zakrzewski, G. A. Voth, 
 P. Salvador, J. J. Dannenberg, S. Dapprich, A. D. Daniels, 
 O. Farkas, J. B. Foresman, J. V. Ortiz, J. Cioslowski, 
 and D. J. Fox, Gaussian, Inc., Wallingford CT, 2013.
 
 ******************************************
 Gaussian 09:  ES64L-G09RevD.01 24-Apr-2013
                 8-Mar-2018 
 ******************************************
 %NProcShared=4
 Will use up to    4 processors via shared memory.
 %LindaWorkers=compute-0-5
 %chk=Isomer_47.chk
 %NProc=4
 Will use up to    4 processors via shared memory.
 %mem=4GB
 SetLPE:  input flags=" -vv -opt "Tsnet.Node.lindarsharg: ssh" "
 SetLPE:    new flags=" -vv -opt "Tsnet.Node.lindarsharg: ssh"  -nodelist 'compute-0-5.local'"
 Will use up to    1 processors via Linda.
 ----------------------------------------------------------------------
 #p PBE1PBE/Def2TZVP scf=(maxcycle=768) opt=(cartesian,maxcycle=512) fr
 eq
 ----------------------------------------------------------------------
 1/6=512,10=7,14=-1,18=10,26=3,38=1/1,3;
 2/12=2,17=6,18=5,29=2,40=1/2;
 3/5=44,7=101,11=2,16=1,25=1,30=1,71=1,74=-13/1,2,3;
 4//1;
 5/5=2,7=768,38=5/2;
 6/7=2,8=2,9=2,10=2,28=1/1;
 7/7=1,29=1/1,2,3,16;
 1/6=512,10=7,14=-1,18=10,26=3/3(2);
 2/29=1/2;
 99/12=1/99;
 2/29=1/2;
 3/5=44,7=101,11=2,16=1,25=1,30=1,71=1,74=-13/1,2,3;
 4/5=5,16=3,69=1/1;
 5/5=2,7=768,38=5/2;
 7/7=1/1,2,3,16;
 1/6=512,14=-1,18=10,26=3/3(-5);
 2/29=1/2;
 6/7=2,8=2,9=2,10=2,19=2,28=1/1;
 99/9=1,12=1/99;
 Leave Link    1 at Thu Mar  8 06:43:13 2018, MaxMem=   536870912 cpu:         0.2
 (Enter /share/apps//mg09/l101.exe)
 ---------------------
 01Final_coords.xyz_47
 ---------------------
 Symbolic Z-matrix:
 Charge =  0 Multiplicity = 1
 83                   -2.15194  -0.96852  -0.91163 
 50                    0.9365    0.53889   2.23757 
 32                    0.3286   -1.99628  -1.82393 
 83                    2.26572  -1.33299   0.23559 
 32                   -0.28543   0.65653  -2.50521 
 83                    1.76896   1.52949  -0.65737 
 83                   -1.1387    1.98098   0.03228 
 50                   -1.99972  -0.18703   2.06238 
 32                   -0.31173  -2.34575   0.9853 
 
 NAtoms=      9 NQM=        9 NQMF=       0 NMMI=      0 NMMIF=      0
                NMic=       0 NMicF=      0.
                    Isotopes and Nuclear Properties:
 (Nuclear quadrupole moments (NQMom) in fm**2, nuclear magnetic moments (NMagM)
  in nuclear magnetons)

  Atom         1           2           3           4           5           6           7           8           9
 IAtWgt=         209         118          74         209          74         209         209         118          74
 AtmWgt= 208.9804000 117.9018000  73.9211788 208.9804000  73.9211788 208.9804000 208.9804000 117.9018000  73.9211788
 NucSpn=           9           0           0           9           0           9           9           0           0
 AtZEff=   0.0000000   0.0000000   0.0000000   0.0000000   0.0000000   0.0000000   0.0000000   0.0000000   0.0000000
 NQMom=  -51.6000000   0.0000000   0.0000000 -51.6000000   0.0000000 -51.6000000 -51.6000000   0.0000000   0.0000000
 NMagM=    4.1106000   0.0000000   0.0000000   4.1106000   0.0000000   4.1106000   4.1106000   0.0000000   0.0000000
 AtZNuc=  83.0000000  50.0000000  32.0000000  83.0000000  32.0000000  83.0000000  83.0000000  50.0000000  32.0000000
 Leave Link  101 at Thu Mar  8 06:43:13 2018, MaxMem=   536870912 cpu:         0.2
 (Enter /share/apps//mg09/l103.exe)

 GradGradGradGradGradGradGradGradGradGradGradGradGradGradGradGradGradGrad
 Berny optimization.
 Initialization pass.
 No Z-matrix variables, so optimization will use Cartesian coordinates.
 Trust Radius=3.00D-01 FncErr=1.00D-07 GrdErr=1.00D-06
 Number of steps in this run=    100 maximum allowed number of steps=    100.
 GradGradGradGradGradGradGradGradGradGradGradGradGradGradGradGradGradGrad

 Leave Link  103 at Thu Mar  8 06:43:13 2018, MaxMem=   536870912 cpu:         0.1
 (Enter /share/apps//mg09/l202.exe)
 ---------------------------------------------------------------------------------------------------
                            Z-MATRIX (ANGSTROMS AND DEGREES)
   CD    Cent   Atom    N1       Length/X        N2       Alpha/Y        N3        Beta/Z          J
 ---------------------------------------------------------------------------------------------------
      1      1  Bi       0  -2.151939         -0.968523         -0.911628
      2      2  Sn       0   0.936498          0.538889          2.237566
      3      3  Ge       0   0.328595         -1.996279         -1.823932
      4      4  Bi       0   2.265717         -1.332987          0.235585
      5      5  Ge       0  -0.285428          0.656530         -2.505205
      6      6  Bi       0   1.768960          1.529488         -0.657372
      7      7  Bi       0  -1.138700          1.980977          0.032278
      8      8  Sn       0  -1.999719         -0.187033          2.062381
      9      9  Ge       0  -0.311732         -2.345752          0.985296
 ---------------------------------------------------------------------------------------------------
                         Z-Matrix orientation:                         
 ---------------------------------------------------------------------
 Center     Atomic      Atomic             Coordinates (Angstroms)
 Number     Number       Type             X           Y           Z
 ---------------------------------------------------------------------
      1         83           0       -2.151939   -0.968523   -0.911628
      2         50           0        0.936498    0.538889    2.237566
      3         32           0        0.328595   -1.996279   -1.823932
      4         83           0        2.265717   -1.332987    0.235585
      5         32           0       -0.285428    0.656530   -2.505205
      6         83           0        1.768960    1.529488   -0.657372
      7         83           0       -1.138700    1.980977    0.032278
      8         50           0       -1.999719   -0.187033    2.062381
      9         32           0       -0.311732   -2.345752    0.985296
 ---------------------------------------------------------------------
                    Distance matrix (angstroms):
                    1          2          3          4          5
     1  Bi   0.000000
     2  Sn   4.661347   0.000000
     3  Ge   2.835777   4.826219   0.000000
     4  Bi   4.578713   3.046091   2.904136   0.000000
     5  Ge   2.943493   4.899063   2.806876   4.240100   0.000000
     6  Bi   4.655980   3.170953   3.983283   3.039392   2.897767
     7  Bi   3.258399   3.354007   4.627854   4.755391   2.986813
     8  Sn   3.078738   3.029690   4.878304   4.779575   4.951084
     9  Ge   2.980175   3.383402   2.902398   2.868972   4.604127
                    6          7          8          9
     6  Bi   0.000000
     7  Bi   3.022242   0.000000
     8  Sn   4.954437   3.092400   0.000000
     9  Ge   4.695223   4.506962   2.944398   0.000000
 Stoichiometry    Bi4Ge3Sn2
 Framework group  C1[X(Bi4Ge3Sn2)]
 Deg. of freedom    21
 Full point group                 C1      NOp   1
 Largest Abelian subgroup         C1      NOp   1
 Largest concise Abelian subgroup C1      NOp   1
                         Standard orientation:                         
 ---------------------------------------------------------------------
 Center     Atomic      Atomic             Coordinates (Angstroms)
 Number     Number       Type             X           Y           Z
 ---------------------------------------------------------------------
      1         83           0       -2.151939   -0.968524   -0.911628
      2         50           0        0.936498    0.538889    2.237566
      3         32           0        0.328596   -1.996279   -1.823932
      4         83           0        2.265718   -1.332986    0.235585
      5         32           0       -0.285428    0.656530   -2.505205
      6         83           0        1.768959    1.529489   -0.657372
      7         83           0       -1.138701    1.980976    0.032278
      8         50           0       -1.999719   -0.187034    2.062381
      9         32           0       -0.311731   -2.345752    0.985296
 ---------------------------------------------------------------------
 Rotational constants (GHZ):      0.1053674      0.0884992      0.0813915
 Leave Link  202 at Thu Mar  8 06:43:13 2018, MaxMem=   536870912 cpu:         0.0
 (Enter /share/apps//mg09/l301.exe)
 Standard basis: def2TZVP (5D, 7F)
 Ernie: Thresh=  0.10000D-02 Tol=  0.10000D-05 Strict=F.
 There are   519 symmetry adapted cartesian basis functions of A   symmetry.
 There are   444 symmetry adapted basis functions of A   symmetry.
   444 basis functions,   963 primitive gaussians,   519 cartesian basis functions
   116 alpha electrons      116 beta electrons
       nuclear repulsion energy      3545.6569038702 Hartrees.
 IExCor= 1009 DFT=T Ex+Corr=PBE1PBE ExCW=0 ScaHFX=  0.250000
 ScaDFX=  0.750000  0.750000  1.000000  1.000000 ScalE2=  1.000000  1.000000
 IRadAn=      0 IRanWt=     -1 IRanGd=            0 ICorTp=0 IEmpDi=  4
 NAtoms=    9 NActive=    9 NUniq=    9 SFac= 1.00D+00 NAtFMM=   60 NAOKFM=F Big=F
 Integral buffers will be    131072 words long.
 Raffenetti 2 integral format.
 Two-electron integral symmetry is turned on.
 Leave Link  301 at Thu Mar  8 06:43:13 2018, MaxMem=   536870912 cpu:         0.2
 (Enter /share/apps//mg09/l302.exe)
 NPDir=0 NMtPBC=     1 NCelOv=     1 NCel=       1 NClECP=     1 NCelD=      1
         NCelK=      1 NCelE2=     1 NClLst=     1 CellRange=     0.0.
 One-electron integrals computed using PRISM.
   1 Symmetry operations used in ECPInt.
 ECPInt:  NShTT=   10440 NPrTT=   41973 LenC2=    9663 LenP2D=   27420.
 LDataN:  DoStor=T MaxTD1= 8 Len=  415
 NBasis=   444 RedAO= T EigKep=  1.34D-03  NBF=   444
 NBsUse=   444 1.00D-06 EigRej= -1.00D+00 NBFU=   444
 Precomputing XC quadrature grid using
 IXCGrd= 4 IRadAn=           0 IRanWt=          -1 IRanGd=           0 AccXCQ= 0.00D+00.
 Defaulting to unpruned grid for atomic number  83.
 Defaulting to unpruned grid for atomic number  83.
 Defaulting to unpruned grid for atomic number  83.
 Generated NRdTot=       0 NPtTot=           0 NUsed=           0 NTot=          32
 NSgBfM=   502   502   502   504   505 MxSgAt=     9 MxSgA2=     9.
 Leave Link  302 at Thu Mar  8 06:43:20 2018, MaxMem=   536870912 cpu:        25.6
 (Enter /share/apps//mg09/l303.exe)
 DipDrv:  MaxL=1.
 Leave Link  303 at Thu Mar  8 06:43:20 2018, MaxMem=   536870912 cpu:         0.2
 (Enter /share/apps//mg09/l401.exe)
 ExpMin= 4.62D-02 ExpMax= 4.66D+05 ExpMxC= 4.50D+03 IAcc=2 IRadAn=         4 AccDes= 0.00D+00
 Harris functional with IExCor= 1009 and IRadAn=       4 diagonalized for initial guess.
 HarFok:  IExCor= 1009 AccDes= 0.00D+00 IRadAn=         4 IDoV= 1 UseB2=F ITyADJ=14
 ICtDFT=  3500011 ScaDFX=  1.000000  1.000000  1.000000  1.000000
 Defaulting to unpruned grid for atomic number  83.
 Defaulting to unpruned grid for atomic number  83.
 Defaulting to unpruned grid for atomic number  83.
 Defaulting to unpruned grid for atomic number  83.
 FoFCou: FMM=F IPFlag=           0 FMFlag=      100000 FMFlg1=           0
         NFxFlg=           0 DoJE=T BraDBF=F KetDBF=T FulRan=T
         wScrn=  0.000000 ICntrl=     500 IOpCl=  0 I1Cent=   200000004 NGrid=           0
         NMat0=    1 NMatS0=      1 NMatT0=    0 NMatD0=    1 NMtDS0=    0 NMtDT0=    0
 Petite list used in FoFCou.
 Harris En= -7518.59993334883    
 JPrj=0 DoOrth=F DoCkMO=F.
 Leave Link  401 at Thu Mar  8 06:43:22 2018, MaxMem=   536870912 cpu:         9.7
 (Enter /share/apps//mg09/l502.exe)
 Closed shell SCF:
 Using DIIS extrapolation, IDIIS=  1040.
 Integral symmetry usage will be decided dynamically.
 IVT=     1410107 IEndB=     1410107 NGot=   536870912 MDV=   536322046
 LenX=   536322046 LenY=   536052166
 Requested convergence on RMS density matrix=1.00D-08 within 768 cycles.
 Requested convergence on MAX density matrix=1.00D-06.
 Requested convergence on             energy=1.00D-06.
 No special actions if energy rises.
 Fock matrices will be formed incrementally for  20 cycles.

 Cycle   1  Pass 1  IDiag  1:
 FoFJK:  IHMeth= 1 ICntrl=       0 DoSepK=F KAlg= 0 I1Cent=   0 FoldK=F
 IRaf= 880000000 NMat=   1 IRICut=       1 DoRegI=T DoRafI=F ISym2E= 0.
 FoFCou: FMM=F IPFlag=           0 FMFlag=      100000 FMFlg1=           0
         NFxFlg=           0 DoJE=F BraDBF=F KetDBF=F FulRan=T
         wScrn=  0.000000 ICntrl=       0 IOpCl=  0 I1Cent=           0 NGrid=           0
         NMat0=    1 NMatS0=      1 NMatT0=    0 NMatD0=    1 NMtDS0=    0 NMtDT0=    0
 Symmetry not used in FoFCou.
 Defaulting to unpruned grid for atomic number  83.
 Defaulting to unpruned grid for atomic number  83.
 Defaulting to unpruned grid for atomic number  83.
 Defaulting to unpruned grid for atomic number  83.
 E= -7517.26459178721    
 DIIS: error= 2.56D-02 at cycle   1 NSaved=   1.
 NSaved= 1 IEnMin= 1 EnMin= -7517.26459178721     IErMin= 1 ErrMin= 2.56D-02
 ErrMax= 2.56D-02  0.00D+00 EMaxC= 1.00D-01 BMatC= 1.44D+00 BMatP= 1.44D+00
 IDIUse=3 WtCom= 7.44D-01 WtEn= 2.56D-01
 Coeff-Com:  0.100D+01
 Coeff-En:   0.100D+01
 Coeff:      0.100D+01
 Gap=     0.128 Goal=   None    Shift=    0.000
 GapD=    0.128 DampG=1.000 DampE=0.500 DampFc=0.5000 IDamp=-1.
 Damping current iteration by 5.00D-01
 RMSDP=4.70D-03 MaxDP=2.04D-01              OVMax= 4.22D-01

 Cycle   2  Pass 1  IDiag  1:
 RMSU=  2.34D-03    CP:  1.00D+00
 E= -7517.35689539542     Delta-E=       -0.092303608206 Rises=F Damp=T
 DIIS: error= 8.99D-03 at cycle   2 NSaved=   2.
 NSaved= 2 IEnMin= 2 EnMin= -7517.35689539542     IErMin= 2 ErrMin= 8.99D-03
 ErrMax= 8.99D-03  0.00D+00 EMaxC= 1.00D-01 BMatC= 1.72D-01 BMatP= 1.44D+00
 IDIUse=3 WtCom= 9.10D-01 WtEn= 8.99D-02
 Coeff-Com:  0.556D-01 0.944D+00
 Coeff-En:   0.414D+00 0.586D+00
 Coeff:      0.878D-01 0.912D+00
 Gap=     0.157 Goal=   None    Shift=    0.000
 RMSDP=2.67D-03 MaxDP=9.78D-02 DE=-9.23D-02 OVMax= 4.59D-01

 Cycle   3  Pass 1  IDiag  1:
 RMSU=  2.22D-03    CP:  1.01D+00  3.69D-01
 E= -7516.92439005199     Delta-E=        0.432505343422 Rises=F Damp=F
 DIIS: error= 2.64D-02 at cycle   3 NSaved=   3.
 NSaved= 3 IEnMin= 2 EnMin= -7517.35689539542     IErMin= 2 ErrMin= 8.99D-03
 ErrMax= 2.64D-02  0.00D+00 EMaxC= 1.00D-01 BMatC= 7.26D-01 BMatP= 1.72D-01
 IDIUse=2 WtCom= 0.00D+00 WtEn= 1.00D+00
 EnCoef did     5 forward-backward iterations
 Coeff-En:   0.101D+00 0.622D+00 0.277D+00
 Coeff:      0.101D+00 0.622D+00 0.277D+00
 Gap=     0.189 Goal=   None    Shift=    0.000
 RMSDP=2.69D-03 MaxDP=1.07D-01 DE= 4.33D-01 OVMax= 3.35D-01

 Cycle   4  Pass 1  IDiag  1:
 RMSU=  8.65D-04    CP:  1.00D+00  9.63D-01  4.23D-02
 E= -7517.69401606485     Delta-E=       -0.769626012858 Rises=F Damp=F
 DIIS: error= 8.97D-03 at cycle   4 NSaved=   4.
 NSaved= 4 IEnMin= 4 EnMin= -7517.69401606485     IErMin= 4 ErrMin= 8.97D-03
 ErrMax= 8.97D-03  0.00D+00 EMaxC= 1.00D-01 BMatC= 8.74D-02 BMatP= 1.72D-01
 IDIUse=3 WtCom= 9.10D-01 WtEn= 8.97D-02
 Coeff-Com:  0.274D-01 0.192D+00 0.227D+00 0.554D+00
 Coeff-En:   0.000D+00 0.000D+00 0.184D+00 0.816D+00
 Coeff:      0.250D-01 0.175D+00 0.223D+00 0.577D+00
 Gap=     0.125 Goal=   None    Shift=    0.000
 RMSDP=1.09D-03 MaxDP=4.94D-02 DE=-7.70D-01 OVMax= 1.19D-01

 Cycle   5  Pass 1  IDiag  1:
 RMSU=  5.99D-04    CP:  1.00D+00  7.54D-01  3.17D-01  4.83D-01
 E= -7517.78147435416     Delta-E=       -0.087458289307 Rises=F Damp=F
 DIIS: error= 3.61D-03 at cycle   5 NSaved=   5.
 NSaved= 5 IEnMin= 5 EnMin= -7517.78147435416     IErMin= 5 ErrMin= 3.61D-03
 ErrMax= 3.61D-03  0.00D+00 EMaxC= 1.00D-01 BMatC= 2.38D-02 BMatP= 8.74D-02
 IDIUse=3 WtCom= 9.64D-01 WtEn= 3.61D-02
 Coeff-Com:  0.273D-01-0.602D-01 0.630D-01 0.439D+00 0.531D+00
 Coeff-En:   0.000D+00 0.000D+00 0.000D+00 0.247D+00 0.753D+00
 Coeff:      0.263D-01-0.580D-01 0.607D-01 0.432D+00 0.539D+00
 Gap=     0.116 Goal=   None    Shift=    0.000
 RMSDP=4.03D-04 MaxDP=1.90D-02 DE=-8.75D-02 OVMax= 4.17D-02

 Cycle   6  Pass 1  IDiag  1:
 RMSU=  1.39D-04    CP:  1.00D+00  7.67D-01  2.16D-01  7.00D-01  6.12D-01
 E= -7517.80554945871     Delta-E=       -0.024075104549 Rises=F Damp=F
 DIIS: error= 6.93D-04 at cycle   6 NSaved=   6.
 NSaved= 6 IEnMin= 6 EnMin= -7517.80554945871     IErMin= 6 ErrMin= 6.93D-04
 ErrMax= 6.93D-04  0.00D+00 EMaxC= 1.00D-01 BMatC= 1.04D-03 BMatP= 2.38D-02
 IDIUse=3 WtCom= 9.93D-01 WtEn= 6.93D-03
 Coeff-Com:  0.116D-01-0.334D-01 0.948D-02 0.147D+00 0.265D+00 0.600D+00
 Coeff-En:   0.000D+00 0.000D+00 0.000D+00 0.000D+00 0.000D+00 0.100D+01
 Coeff:      0.115D-01-0.332D-01 0.941D-02 0.146D+00 0.263D+00 0.603D+00
 Gap=     0.118 Goal=   None    Shift=    0.000
 RMSDP=1.41D-04 MaxDP=7.64D-03 DE=-2.41D-02 OVMax= 1.57D-02

 Cycle   7  Pass 1  IDiag  1:
 RMSU=  9.44D-05    CP:  1.00D+00  7.66D-01  2.37D-01  7.18D-01  6.51D-01
                    CP:  3.54D-01
 E= -7517.80583328907     Delta-E=       -0.000283830364 Rises=F Damp=F
 DIIS: error= 6.51D-04 at cycle   7 NSaved=   7.
 NSaved= 7 IEnMin= 7 EnMin= -7517.80583328907     IErMin= 7 ErrMin= 6.51D-04
 ErrMax= 6.51D-04  0.00D+00 EMaxC= 1.00D-01 BMatC= 5.26D-04 BMatP= 1.04D-03
 IDIUse=3 WtCom= 9.93D-01 WtEn= 6.51D-03
 Coeff-Com:  0.641D-02-0.191D-01 0.660D-03 0.671D-01 0.140D+00 0.443D+00
 Coeff-Com:  0.361D+00
 Coeff-En:   0.000D+00 0.000D+00 0.000D+00 0.000D+00 0.000D+00 0.431D+00
 Coeff-En:   0.569D+00
 Coeff:      0.637D-02-0.190D-01 0.656D-03 0.667D-01 0.139D+00 0.443D+00
 Coeff:      0.363D+00
 Gap=     0.117 Goal=   None    Shift=    0.000
 RMSDP=8.07D-05 MaxDP=3.60D-03 DE=-2.84D-04 OVMax= 9.34D-03

 Cycle   8  Pass 1  IDiag  1:
 RMSU=  3.97D-05    CP:  1.00D+00  7.68D-01  2.34D-01  7.11D-01  6.55D-01
                    CP:  6.28D-01  3.84D-01
 E= -7517.80642384915     Delta-E=       -0.000590560081 Rises=F Damp=F
 DIIS: error= 2.60D-04 at cycle   8 NSaved=   8.
 NSaved= 8 IEnMin= 8 EnMin= -7517.80642384915     IErMin= 8 ErrMin= 2.60D-04
 ErrMax= 2.60D-04  0.00D+00 EMaxC= 1.00D-01 BMatC= 8.31D-05 BMatP= 5.26D-04
 IDIUse=3 WtCom= 9.97D-01 WtEn= 2.60D-03
 Coeff-Com:  0.319D-02-0.894D-02-0.145D-02 0.272D-01 0.609D-01 0.234D+00
 Coeff-Com:  0.274D+00 0.410D+00
 Coeff-En:   0.000D+00 0.000D+00 0.000D+00 0.000D+00 0.000D+00 0.000D+00
 Coeff-En:   0.165D+00 0.835D+00
 Coeff:      0.318D-02-0.892D-02-0.145D-02 0.272D-01 0.608D-01 0.234D+00
 Coeff:      0.274D+00 0.412D+00
 Gap=     0.116 Goal=   None    Shift=    0.000
 RMSDP=3.21D-05 MaxDP=1.15D-03 DE=-5.91D-04 OVMax= 3.55D-03

 Cycle   9  Pass 1  IDiag  1:
 RMSU=  1.47D-05    CP:  1.00D+00  7.69D-01  2.32D-01  7.10D-01  6.56D-01
                    CP:  6.29D-01  5.20D-01  3.75D-01
 E= -7517.80652023750     Delta-E=       -0.000096388350 Rises=F Damp=F
 DIIS: error= 9.92D-05 at cycle   9 NSaved=   9.
 NSaved= 9 IEnMin= 9 EnMin= -7517.80652023750     IErMin= 9 ErrMin= 9.92D-05
 ErrMax= 9.92D-05  0.00D+00 EMaxC= 1.00D-01 BMatC= 1.42D-05 BMatP= 8.31D-05
 IDIUse=1 WtCom= 1.00D+00 WtEn= 0.00D+00
 Coeff-Com:  0.744D-03-0.153D-02-0.167D-02 0.210D-02 0.908D-02 0.725D-01
 Coeff-Com:  0.116D+00 0.309D+00 0.494D+00
 Coeff:      0.744D-03-0.153D-02-0.167D-02 0.210D-02 0.908D-02 0.725D-01
 Coeff:      0.116D+00 0.309D+00 0.494D+00
 Gap=     0.116 Goal=   None    Shift=    0.000
 RMSDP=1.07D-05 MaxDP=6.37D-04 DE=-9.64D-05 OVMax= 1.21D-03

 Cycle  10  Pass 1  IDiag  1:
 RMSU=  3.91D-06    CP:  1.00D+00  7.68D-01  2.31D-01  7.12D-01  6.58D-01
                    CP:  6.23D-01  5.24D-01  5.58D-01  6.10D-01
 E= -7517.80653591712     Delta-E=       -0.000015679614 Rises=F Damp=F
 DIIS: error= 1.31D-05 at cycle  10 NSaved=  10.
 NSaved=10 IEnMin=10 EnMin= -7517.80653591712     IErMin=10 ErrMin= 1.31D-05
 ErrMax= 1.31D-05  0.00D+00 EMaxC= 1.00D-01 BMatC= 4.72D-07 BMatP= 1.42D-05
 IDIUse=1 WtCom= 1.00D+00 WtEn= 0.00D+00
 Coeff-Com:  0.297D-03-0.586D-03-0.832D-03 0.265D-03 0.223D-02 0.295D-01
 Coeff-Com:  0.480D-01 0.148D+00 0.275D+00 0.498D+00
 Coeff:      0.297D-03-0.586D-03-0.832D-03 0.265D-03 0.223D-02 0.295D-01
 Coeff:      0.480D-01 0.148D+00 0.275D+00 0.498D+00
 Gap=     0.116 Goal=   None    Shift=    0.000
 RMSDP=2.99D-06 MaxDP=1.49D-04 DE=-1.57D-05 OVMax= 4.02D-04

 Cycle  11  Pass 1  IDiag  1:
 RMSU=  2.55D-06    CP:  1.00D+00  7.68D-01  2.31D-01  7.12D-01  6.58D-01
                    CP:  6.26D-01  5.25D-01  5.67D-01  6.38D-01  6.64D-01
 E= -7517.80653590925     Delta-E=        0.000000007867 Rises=F Damp=F
 DIIS: error= 1.76D-05 at cycle  11 NSaved=  11.
 NSaved=11 IEnMin=10 EnMin= -7517.80653591712     IErMin=10 ErrMin= 1.31D-05
 ErrMax= 1.76D-05  0.00D+00 EMaxC= 1.00D-01 BMatC= 4.01D-07 BMatP= 4.72D-07
 IDIUse=1 WtCom= 1.00D+00 WtEn= 0.00D+00
 Coeff-Com:  0.494D-04-0.927D-04-0.255D-03-0.425D-03-0.935D-03 0.608D-02
 Coeff-Com:  0.954D-02 0.450D-01 0.112D+00 0.461D+00 0.369D+00
 Coeff:      0.494D-04-0.927D-04-0.255D-03-0.425D-03-0.935D-03 0.608D-02
 Coeff:      0.954D-02 0.450D-01 0.112D+00 0.461D+00 0.369D+00
 Gap=     0.116 Goal=   None    Shift=    0.000
 RMSDP=2.03D-06 MaxDP=8.74D-05 DE= 7.87D-09 OVMax= 2.95D-04

 Cycle  12  Pass 1  IDiag  1:
 RMSU=  9.18D-07    CP:  1.00D+00  7.68D-01  2.31D-01  7.12D-01  6.58D-01
                    CP:  6.27D-01  5.26D-01  5.66D-01  6.57D-01  8.71D-01
                    CP:  3.87D-01
 E= -7517.80653641827     Delta-E=       -0.000000509015 Rises=F Damp=F
 DIIS: error= 5.37D-06 at cycle  12 NSaved=  12.
 NSaved=12 IEnMin=12 EnMin= -7517.80653641827     IErMin=12 ErrMin= 5.37D-06
 ErrMax= 5.37D-06  0.00D+00 EMaxC= 1.00D-01 BMatC= 3.69D-08 BMatP= 4.01D-07
 IDIUse=1 WtCom= 1.00D+00 WtEn= 0.00D+00
 Coeff-Com: -0.269D-04 0.547D-04 0.202D-04-0.414D-03-0.132D-02-0.210D-02
 Coeff-Com: -0.433D-02-0.341D-02 0.144D-01 0.185D+00 0.271D+00 0.541D+00
 Coeff:     -0.269D-04 0.547D-04 0.202D-04-0.414D-03-0.132D-02-0.210D-02
 Coeff:     -0.433D-02-0.341D-02 0.144D-01 0.185D+00 0.271D+00 0.541D+00
 Gap=     0.116 Goal=   None    Shift=    0.000
 RMSDP=6.34D-07 MaxDP=3.61D-05 DE=-5.09D-07 OVMax= 6.92D-05

 Cycle  13  Pass 1  IDiag  1:
 RMSU=  3.11D-07    CP:  1.00D+00  7.68D-01  2.31D-01  7.12D-01  6.58D-01
                    CP:  6.29D-01  5.28D-01  5.69D-01  6.66D-01  8.89D-01
                    CP:  5.03D-01  6.94D-01
 E= -7517.80653646678     Delta-E=       -0.000000048512 Rises=F Damp=F
 DIIS: error= 1.16D-06 at cycle  13 NSaved=  13.
 NSaved=13 IEnMin=13 EnMin= -7517.80653646678     IErMin=13 ErrMin= 1.16D-06
 ErrMax= 1.16D-06  0.00D+00 EMaxC= 1.00D-01 BMatC= 2.76D-09 BMatP= 3.69D-08
 IDIUse=1 WtCom= 1.00D+00 WtEn= 0.00D+00
 Coeff-Com: -0.229D-04 0.439D-04 0.514D-04-0.215D-03-0.749D-03-0.237D-02
 Coeff-Com: -0.421D-02-0.909D-02-0.693D-02 0.465D-01 0.122D+00 0.299D+00
 Coeff-Com:  0.556D+00
 Coeff:     -0.229D-04 0.439D-04 0.514D-04-0.215D-03-0.749D-03-0.237D-02
 Coeff:     -0.421D-02-0.909D-02-0.693D-02 0.465D-01 0.122D+00 0.299D+00
 Coeff:      0.556D+00
 Gap=     0.116 Goal=   None    Shift=    0.000
 RMSDP=1.84D-07 MaxDP=1.07D-05 DE=-4.85D-08 OVMax= 2.56D-05

 Cycle  14  Pass 1  IDiag  1:
 RMSU=  1.11D-07    CP:  1.00D+00  7.68D-01  2.31D-01  7.12D-01  6.58D-01
                    CP:  6.29D-01  5.28D-01  5.69D-01  6.69D-01  8.93D-01
                    CP:  5.31D-01  7.73D-01  7.84D-01
 E= -7517.80653647005     Delta-E=       -0.000000003274 Rises=F Damp=F
 DIIS: error= 2.61D-07 at cycle  14 NSaved=  14.
 NSaved=14 IEnMin=14 EnMin= -7517.80653647005     IErMin=14 ErrMin= 2.61D-07
 ErrMax= 2.61D-07  0.00D+00 EMaxC= 1.00D-01 BMatC= 2.07D-10 BMatP= 2.76D-09
 IDIUse=1 WtCom= 1.00D+00 WtEn= 0.00D+00
 Coeff-Com: -0.646D-05 0.122D-04 0.199D-04-0.529D-04-0.186D-03-0.842D-03
 Coeff-Com: -0.143D-02-0.396D-02-0.521D-02-0.205D-02 0.267D-01 0.801D-01
 Coeff-Com:  0.269D+00 0.637D+00
 Coeff:     -0.646D-05 0.122D-04 0.199D-04-0.529D-04-0.186D-03-0.842D-03
 Coeff:     -0.143D-02-0.396D-02-0.521D-02-0.205D-02 0.267D-01 0.801D-01
 Coeff:      0.269D+00 0.637D+00
 Gap=     0.116 Goal=   None    Shift=    0.000
 RMSDP=6.39D-08 MaxDP=3.77D-06 DE=-3.27D-09 OVMax= 9.66D-06

 Cycle  15  Pass 1  IDiag  1:
 RMSU=  3.84D-08    CP:  1.00D+00  7.68D-01  2.31D-01  7.12D-01  6.58D-01
                    CP:  6.29D-01  5.28D-01  5.70D-01  6.70D-01  8.98D-01
                    CP:  5.38D-01  7.78D-01  8.70D-01  9.00D-01
 E= -7517.80653647021     Delta-E=       -0.000000000158 Rises=F Damp=F
 DIIS: error= 1.44D-07 at cycle  15 NSaved=  15.
 NSaved=15 IEnMin=15 EnMin= -7517.80653647021     IErMin=15 ErrMin= 1.44D-07
 ErrMax= 1.44D-07  0.00D+00 EMaxC= 1.00D-01 BMatC= 3.50D-11 BMatP= 2.07D-10
 IDIUse=1 WtCom= 1.00D+00 WtEn= 0.00D+00
 Coeff-Com:  0.977D-06-0.187D-05 0.239D-06 0.136D-04 0.430D-04-0.873D-05
 Coeff-Com: -0.428D-04-0.393D-03-0.142D-02-0.857D-02-0.803D-02-0.777D-02
 Coeff-Com:  0.426D-01 0.308D+00 0.676D+00
 Coeff:      0.977D-06-0.187D-05 0.239D-06 0.136D-04 0.430D-04-0.873D-05
 Coeff:     -0.428D-04-0.393D-03-0.142D-02-0.857D-02-0.803D-02-0.777D-02
 Coeff:      0.426D-01 0.308D+00 0.676D+00
 Gap=     0.116 Goal=   None    Shift=    0.000
 RMSDP=2.73D-08 MaxDP=1.51D-06 DE=-1.58D-10 OVMax= 4.65D-06

 Cycle  16  Pass 1  IDiag  1:
 RMSU=  1.57D-08    CP:  1.00D+00  7.68D-01  2.31D-01  7.12D-01  6.58D-01
                    CP:  6.29D-01  5.28D-01  5.70D-01  6.70D-01  9.00D-01
                    CP:  5.38D-01  7.88D-01  8.83D-01  1.01D+00  8.23D-01
 E= -7517.80653646998     Delta-E=        0.000000000235 Rises=F Damp=F
 DIIS: error= 5.22D-08 at cycle  16 NSaved=  16.
 NSaved=16 IEnMin=15 EnMin= -7517.80653647021     IErMin=16 ErrMin= 5.22D-08
 ErrMax= 5.22D-08  0.00D+00 EMaxC= 1.00D-01 BMatC= 4.99D-12 BMatP= 3.50D-11
 IDIUse=1 WtCom= 1.00D+00 WtEn= 0.00D+00
 Coeff-Com:  0.890D-06-0.177D-05-0.119D-05 0.113D-04 0.365D-04 0.508D-04
 Coeff-Com:  0.714D-04 0.822D-04-0.336D-03-0.436D-02-0.629D-02-0.101D-01
 Coeff-Com:  0.384D-02 0.120D+00 0.390D+00 0.508D+00
 Coeff:      0.890D-06-0.177D-05-0.119D-05 0.113D-04 0.365D-04 0.508D-04
 Coeff:      0.714D-04 0.822D-04-0.336D-03-0.436D-02-0.629D-02-0.101D-01
 Coeff:      0.384D-02 0.120D+00 0.390D+00 0.508D+00
 Gap=     0.116 Goal=   None    Shift=    0.000
 RMSDP=9.27D-09 MaxDP=7.21D-07 DE= 2.35D-10 OVMax= 9.48D-07

 SCF Done:  E(RPBE1PBE) =  -7517.80653647     A.U. after   16 cycles
            NFock= 16  Conv=0.93D-08     -V/T= 2.1285
 KE= 6.661948463119D+03 PE=-2.468269260666D+04 EE= 6.957280703200D+03
 Leave Link  502 at Thu Mar  8 06:55:09 2018, MaxMem=   536870912 cpu:      2824.9
 (Enter /share/apps//mg09/l601.exe)
 Copying SCF densities to generalized density rwf, IOpCl= 0 IROHF=0.

 **********************************************************************

            Population analysis using the SCF density.

 **********************************************************************

 Orbital symmetries:
       Occupied  (A) (A) (A) (A) (A) (A) (A) (A) (A) (A) (A) (A)
                 (A) (A) (A) (A) (A) (A) (A) (A) (A) (A) (A) (A)
                 (A) (A) (A) (A) (A) (A) (A) (A) (A) (A) (A) (A)
                 (A) (A) (A) (A) (A) (A) (A) (A) (A) (A) (A) (A)
                 (A) (A) (A) (A) (A) (A) (A) (A) (A) (A) (A) (A)
                 (A) (A) (A) (A) (A) (A) (A) (A) (A) (A) (A) (A)
                 (A) (A) (A) (A) (A) (A) (A) (A) (A) (A) (A) (A)
                 (A) (A) (A) (A) (A) (A) (A) (A) (A) (A) (A) (A)
                 (A) (A) (A) (A) (A) (A) (A) (A) (A) (A) (A) (A)
                 (A) (A) (A) (A) (A) (A) (A) (A)
       Virtual   (A) (A) (A) (A) (A) (A) (A) (A) (A) (A) (A) (A)
                 (A) (A) (A) (A) (A) (A) (A) (A) (A) (A) (A) (A)
                 (A) (A) (A) (A) (A) (A) (A) (A) (A) (A) (A) (A)
                 (A) (A) (A) (A) (A) (A) (A) (A) (A) (A) (A) (A)
                 (A) (A) (A) (A) (A) (A) (A) (A) (A) (A) (A) (A)
                 (A) (A) (A) (A) (A) (A) (A) (A) (A) (A) (A) (A)
                 (A) (A) (A) (A) (A) (A) (A) (A) (A) (A) (A) (A)
                 (A) (A) (A) (A) (A) (A) (A) (A) (A) (A) (A) (A)
                 (A) (A) (A) (A) (A) (A) (A) (A) (A) (A) (A) (A)
                 (A) (A) (A) (A) (A) (A) (A) (A) (A) (A) (A) (A)
                 (A) (A) (A) (A) (A) (A) (A) (A) (A) (A) (A) (A)
                 (A) (A) (A) (A) (A) (A) (A) (A) (A) (A) (A) (A)
                 (A) (A) (A) (A) (A) (A) (A) (A) (A) (A) (A) (A)
                 (A) (A) (A) (A) (A) (A) (A) (A) (A) (A) (A) (A)
                 (A) (A) (A) (A) (A) (A) (A) (A) (A) (A) (A) (A)
                 (A) (A) (A) (A) (A) (A) (A) (A) (A) (A) (A) (A)
                 (A) (A) (A) (A) (A) (A) (A) (A) (A) (A) (A) (A)
                 (A) (A) (A) (A) (A) (A) (A) (A) (A) (A) (A) (A)
                 (A) (A) (A) (A) (A) (A) (A) (A) (A) (A) (A) (A)
                 (A) (A) (A) (A) (A) (A) (A) (A) (A) (A) (A) (A)
                 (A) (A) (A) (A) (A) (A) (A) (A) (A) (A) (A) (A)
                 (A) (A) (A) (A) (A) (A) (A) (A) (A) (A) (A) (A)
                 (A) (A) (A) (A) (A) (A) (A) (A) (A) (A) (A) (A)
                 (A) (A) (A) (A) (A) (A) (A) (A) (A) (A) (A) (A)
                 (A) (A) (A) (A) (A) (A) (A) (A) (A) (A) (A) (A)
                 (A) (A) (A) (A) (A) (A) (A) (A) (A) (A) (A) (A)
                 (A) (A) (A) (A) (A) (A) (A) (A) (A) (A) (A) (A)
                 (A) (A) (A) (A)
 The electronic state is 1-A.
 Alpha  occ. eigenvalues -- -399.09821-399.09112-399.09031 -49.91372 -49.90701
 Alpha  occ. eigenvalues --  -49.90607 -44.39457 -44.39422 -44.39410 -44.38791
 Alpha  occ. eigenvalues --  -44.38772 -44.38699 -44.38681 -44.38675 -44.38631
 Alpha  occ. eigenvalues --   -6.27869  -6.27203  -6.27113  -6.02417  -6.02078
 Alpha  occ. eigenvalues --   -6.01933  -6.01278  -5.13970  -5.13294  -4.43316
 Alpha  occ. eigenvalues --   -4.43193  -4.43158  -4.42679  -4.42625  -4.42542
 Alpha  occ. eigenvalues --   -4.42507  -4.42363  -4.42353  -3.74694  -3.74538
 Alpha  occ. eigenvalues --   -3.74432  -3.74365  -3.74213  -3.74211  -3.74123
 Alpha  occ. eigenvalues --   -3.74088  -3.73874  -3.73615  -3.73332  -3.73294
 Alpha  occ. eigenvalues --   -3.47237  -3.47082  -3.46932  -3.46509  -3.46503
 Alpha  occ. eigenvalues --   -3.46211  -1.22746  -1.22733  -1.22680  -1.22597
 Alpha  occ. eigenvalues --   -1.22574  -1.22184  -1.22180  -1.22037  -1.22014
 Alpha  occ. eigenvalues --   -1.21997  -1.21937  -1.21882  -1.21819  -1.21810
 Alpha  occ. eigenvalues --   -1.21721  -1.08760  -1.08364  -1.08311  -1.08241
 Alpha  occ. eigenvalues --   -1.08123  -1.08009  -1.07930  -1.07877  -1.07793
 Alpha  occ. eigenvalues --   -1.07787  -1.07727  -1.07683  -1.07667  -1.07526
 Alpha  occ. eigenvalues --   -1.07392  -1.07179  -1.07087  -1.06936  -1.06860
 Alpha  occ. eigenvalues --   -1.06797  -1.03439  -1.03383  -1.03270  -1.03247
 Alpha  occ. eigenvalues --   -1.03117  -1.02759  -1.02745  -1.02487  -1.02453
 Alpha  occ. eigenvalues --   -1.02344  -0.66824  -0.62003  -0.60772  -0.55600
 Alpha  occ. eigenvalues --   -0.50480  -0.47532  -0.44138  -0.42030  -0.40473
 Alpha  occ. eigenvalues --   -0.29053  -0.27854  -0.26796  -0.25764  -0.24760
 Alpha  occ. eigenvalues --   -0.23848  -0.23584  -0.22924  -0.22409  -0.20479
 Alpha  occ. eigenvalues --   -0.19487
 Alpha virt. eigenvalues --   -0.07853  -0.07337  -0.07155  -0.06855  -0.05897
 Alpha virt. eigenvalues --   -0.05831  -0.05047  -0.04578  -0.04459  -0.04174
 Alpha virt. eigenvalues --   -0.03522  -0.02189  -0.00527   0.04021   0.04645
 Alpha virt. eigenvalues --    0.04980   0.06298   0.07993   0.08637   0.08970
 Alpha virt. eigenvalues --    0.09306   0.09394   0.09889   0.10375   0.10734
 Alpha virt. eigenvalues --    0.11081   0.11284   0.11608   0.12576   0.13327
 Alpha virt. eigenvalues --    0.14080   0.15625   0.16165   0.16493   0.16833
 Alpha virt. eigenvalues --    0.17374   0.18211   0.19509   0.20054   0.20439
 Alpha virt. eigenvalues --    0.20977   0.21340   0.22728   0.23449   0.24121
 Alpha virt. eigenvalues --    0.24912   0.25584   0.26532   0.27962   0.28551
 Alpha virt. eigenvalues --    0.29750   0.29915   0.30219   0.30585   0.31149
 Alpha virt. eigenvalues --    0.31748   0.32106   0.32711   0.33050   0.33767
 Alpha virt. eigenvalues --    0.34330   0.34658   0.35760   0.36984   0.37907
 Alpha virt. eigenvalues --    0.38709   0.39535   0.40570   0.41500   0.41846
 Alpha virt. eigenvalues --    0.41931   0.42398   0.42630   0.44034   0.44517
 Alpha virt. eigenvalues --    0.45683   0.46294   0.47338   0.47758   0.48475
 Alpha virt. eigenvalues --    0.49052   0.49139   0.49984   0.51272   0.51369
 Alpha virt. eigenvalues --    0.52258   0.53847   0.53993   0.55196   0.56123
 Alpha virt. eigenvalues --    0.56963   0.57406   0.58121   0.58680   0.59297
 Alpha virt. eigenvalues --    0.60053   0.60270   0.61468   0.61527   0.62625
 Alpha virt. eigenvalues --    0.63065   0.63697   0.64480   0.65160   0.66129
 Alpha virt. eigenvalues --    0.66275   0.67286   0.67934   0.69055   0.69608
 Alpha virt. eigenvalues --    0.70859   0.71227   0.71973   0.72810   0.72999
 Alpha virt. eigenvalues --    0.73697   0.75472   0.75948   0.76751   0.78643
 Alpha virt. eigenvalues --    0.80174   0.80463   0.80713   0.81334   0.82963
 Alpha virt. eigenvalues --    0.83157   0.83870   0.84632   0.84919   0.85904
 Alpha virt. eigenvalues --    0.86656   0.87185   0.87670   0.88703   0.89026
 Alpha virt. eigenvalues --    0.89812   0.91257   0.91864   0.92218   0.93248
 Alpha virt. eigenvalues --    0.94512   0.95305   0.96598   0.96855   0.97780
 Alpha virt. eigenvalues --    0.98299   0.98814   0.99482   1.00153   1.00890
 Alpha virt. eigenvalues --    1.01650   1.04776   1.05167   1.06591   1.07551
 Alpha virt. eigenvalues --    1.08619   1.09864   1.10176   1.11500   1.12690
 Alpha virt. eigenvalues --    1.13588   1.14599   1.15887   1.16672   1.17082
 Alpha virt. eigenvalues --    1.17511   1.18855   1.19292   1.19510   1.20127
 Alpha virt. eigenvalues --    1.20780   1.21114   1.21289   1.21951   1.22201
 Alpha virt. eigenvalues --    1.22409   1.22799   1.22944   1.24247   1.24606
 Alpha virt. eigenvalues --    1.24846   1.25320   1.25959   1.26542   1.27275
 Alpha virt. eigenvalues --    1.27945   1.28313   1.28402   1.29541   1.29746
 Alpha virt. eigenvalues --    1.30841   1.31021   1.31458   1.31782   1.32631
 Alpha virt. eigenvalues --    1.34192   1.35588   1.36949   1.38208   1.38335
 Alpha virt. eigenvalues --    1.39406   1.40240   1.42481   1.42835   1.43582
 Alpha virt. eigenvalues --    1.44677   1.44856   1.46840   1.48394   1.48668
 Alpha virt. eigenvalues --    1.49314   1.50478   1.51707   1.52284   1.53652
 Alpha virt. eigenvalues --    1.54612   1.55953   1.56944   1.58998   1.60784
 Alpha virt. eigenvalues --    1.63528   1.65823   1.70156   2.04153   2.07235
 Alpha virt. eigenvalues --    2.09258   2.10196   2.11307   2.15577   2.16334
 Alpha virt. eigenvalues --    2.17622   2.18178   2.19501   2.20199   2.21068
 Alpha virt. eigenvalues --    2.21871   2.22465   2.23687   2.25677   2.26567
 Alpha virt. eigenvalues --    2.26996   2.28563   2.29753   2.30121   2.32047
 Alpha virt. eigenvalues --    2.33100   2.33989   2.35371   2.36941   2.38175
 Alpha virt. eigenvalues --    2.41575   2.41634   2.43669   2.45154   2.45538
 Alpha virt. eigenvalues --    2.46842   2.49024   2.52419   2.53293   2.55902
 Alpha virt. eigenvalues --    2.56377   2.59377   2.63947   2.65022   2.66694
 Alpha virt. eigenvalues --    2.67354   2.68293   2.69534   2.74489   2.75431
 Alpha virt. eigenvalues --    2.76896   2.77272   2.79760   2.81046   2.81806
 Alpha virt. eigenvalues --    2.83654   2.84325   2.84975   2.94982   2.96815
 Alpha virt. eigenvalues --    3.21647   3.23242   3.33119   3.34571   3.37600
 Alpha virt. eigenvalues --    3.44313   3.94786   3.96896   3.99513   3.99755
 Alpha virt. eigenvalues --    4.03726   4.04150   4.06460   4.07894   4.11733
 Alpha virt. eigenvalues --    5.21964   5.33470   5.38730  35.37908  35.39143
 Alpha virt. eigenvalues --   35.41830  35.44505  35.45876  35.46513  35.50777
 Alpha virt. eigenvalues --   35.51468  35.55217  35.56410  35.59872  35.63487
 Alpha virt. eigenvalues --   35.87515  35.91364  36.01953  36.10261  36.18784
 Alpha virt. eigenvalues --   36.21580  36.94675  36.95633  36.96875  37.05013
 Alpha virt. eigenvalues --   37.07563  37.16518 113.57368 113.58750 120.21960
 Alpha virt. eigenvalues --  120.23125 120.24777 120.25996
          Condensed to atoms (all electrons):
               1          2          3          4          5          6
     1  Bi  22.244742  -0.024891   0.177523  -0.023853   0.135598  -0.027097
     2  Sn  -0.024891  21.394057  -0.015058   0.155797  -0.014949   0.118943
     3  Ge   0.177523  -0.015058  31.529061   0.179198   0.176581  -0.015788
     4  Bi  -0.023853   0.155797   0.179198  22.363124  -0.020046   0.177282
     5  Ge   0.135598  -0.014949   0.176581  -0.020046  31.607351   0.177767
     6  Bi  -0.027097   0.118943  -0.015788   0.177282   0.177767  22.353612
     7  Bi   0.093582   0.088924  -0.028818  -0.023900   0.131593   0.189054
     8  Sn   0.141092   0.174314  -0.014453  -0.016115  -0.012432  -0.016178
     9  Ge   0.128305   0.059680   0.102609   0.175762  -0.019914  -0.019185
               7          8          9
     1  Bi   0.093582   0.141092   0.128305
     2  Sn   0.088924   0.174314   0.059680
     3  Ge  -0.028818  -0.014453   0.102609
     4  Bi  -0.023900  -0.016115   0.175762
     5  Ge   0.131593  -0.012432  -0.019914
     6  Bi   0.189054  -0.016178  -0.019185
     7  Bi  22.331315   0.155449  -0.025737
     8  Sn   0.155449  21.480958   0.162903
     9  Ge  -0.025737   0.162903  31.528693
 Mulliken charges:
               1
     1  Bi   0.154998
     2  Sn   0.063183
     3  Ge  -0.090856
     4  Bi   0.032751
     5  Ge  -0.161550
     6  Bi   0.061589
     7  Bi   0.088539
     8  Sn  -0.055539
     9  Ge  -0.093116
 Sum of Mulliken charges =   0.00000
 Mulliken charges with hydrogens summed into heavy atoms:
               1
     1  Bi   0.154998
     2  Sn   0.063183
     3  Ge  -0.090856
     4  Bi   0.032751
     5  Ge  -0.161550
     6  Bi   0.061589
     7  Bi   0.088539
     8  Sn  -0.055539
     9  Ge  -0.093116
 Electronic spatial extent (au):  <R**2>=           6008.4438
 Charge=              0.0000 electrons
 Dipole moment (field-independent basis, Debye):
    X=              0.1346    Y=              1.1775    Z=              0.7934  Tot=              1.4262
 Quadrupole moment (field-independent basis, Debye-Ang):
   XX=           -212.4021   YY=           -220.2926   ZZ=           -221.6252
   XY=              0.1469   XZ=             -0.5767   YZ=             -0.1786
 Traceless Quadrupole moment (field-independent basis, Debye-Ang):
   XX=              5.7045   YY=             -2.1860   ZZ=             -3.5186
   XY=              0.1469   XZ=             -0.5767   YZ=             -0.1786
 Octapole moment (field-independent basis, Debye-Ang**2):
  XXX=             32.5509  YYY=             77.0402  ZZZ=            -15.7242  XYY=              8.4358
  XXY=             16.8540  XXZ=            -18.2877  XZZ=             11.7899  YZZ=             19.4215
  YYZ=             -6.9176  XYZ=             -6.2567
 Hexadecapole moment (field-independent basis, Debye-Ang**3):
 XXXX=          -3525.4495 YYYY=          -3054.4907 ZZZZ=          -3070.8779 XXXY=             -8.3908
 XXXZ=             54.7052 YYYX=            -34.3070 YYYZ=            -22.5411 ZZZX=             33.7328
 ZZZY=             -6.8023 XXYY=          -1069.4442 XXZZ=          -1114.4384 YYZZ=          -1033.7289
 XXYZ=             -6.6321 YYXZ=              4.3406 ZZXY=              4.6386
 N-N= 3.545656903870D+03 E-N=-2.468269262567D+04  KE= 6.661948463119D+03
 No NMR shielding tensors so no spin-rotation constants.
 Leave Link  601 at Thu Mar  8 06:55:10 2018, MaxMem=   536870912 cpu:         1.1
 (Enter /share/apps//mg09/l701.exe)
 Compute integral first derivatives.
 ... and contract with generalized density number  0.
   1 Symmetry operations used in ECPInt.
 ECPInt:  NShTT=   10440 NPrTT=   41973 LenC2=    9663 LenP2D=   27420.
 LDataN:  DoStor=T MaxTD1= 9 Len=  602
 Leave Link  701 at Thu Mar  8 06:55:26 2018, MaxMem=   536870912 cpu:        66.5
 (Enter /share/apps//mg09/l702.exe)
 L702 exits ... SP integral derivatives will be done elsewhere.
 Leave Link  702 at Thu Mar  8 06:55:26 2018, MaxMem=   536870912 cpu:         0.1
 (Enter /share/apps//mg09/l703.exe)
 Compute integral first derivatives, UseDBF=F ICtDFT=           0.
 Integral derivatives from FoFJK, PRISM(SPDF).
 Calling FoFJK, ICntrl=      2127 FMM=F ISym2X=0 I1Cent= 0 IOpClX= 0 NMat=1 NMatS=1 NMatT=0.
 FoFJK:  IHMeth= 1 ICntrl=    2127 DoSepK=F KAlg= 0 I1Cent=   0 FoldK=F
 IRaf=         0 NMat=   1 IRICut=       1 DoRegI=T DoRafI=F ISym2E= 0.
 FoFCou: FMM=F IPFlag=           0 FMFlag=      100000 FMFlg1=         800
         NFxFlg=           0 DoJE=F BraDBF=F KetDBF=F FulRan=T
         wScrn=  0.000000 ICntrl=    2127 IOpCl=  0 I1Cent=           0 NGrid=           0
         NMat0=    1 NMatS0=      1 NMatT0=    0 NMatD0=    1 NMtDS0=    0 NMtDT0=    0
 Symmetry not used in FoFCou.
 Defaulting to unpruned grid for atomic number  83.
 Defaulting to unpruned grid for atomic number  83.
 Defaulting to unpruned grid for atomic number  83.
 Defaulting to unpruned grid for atomic number  83.
 Leave Link  703 at Thu Mar  8 06:58:08 2018, MaxMem=   536870912 cpu:       645.9
 (Enter /share/apps//mg09/l716.exe)
 Dipole        = 5.29701190D-02 4.63275161D-01 3.12140892D-01
 ***** Axes restored to original set *****
 -------------------------------------------------------------------
 Center     Atomic                   Forces (Hartrees/Bohr)
 Number     Number              X              Y              Z
 -------------------------------------------------------------------
      1       83           0.011302579    0.000929163    0.002892415
      2       50          -0.006123726   -0.004937531   -0.009350753
      3       32          -0.004586213    0.010023514    0.010423476
      4       83          -0.009821331    0.002092822   -0.000737346
      5       32           0.001412571   -0.006184140    0.011550210
      6       83          -0.006689504   -0.005267089    0.000765039
      7       83           0.003736578   -0.007342269   -0.000463869
      8       50           0.009621094   -0.001785422   -0.008184861
      9       32           0.001147951    0.012470951   -0.006894312
 -------------------------------------------------------------------
 Cartesian Forces:  Max     0.012470951 RMS     0.006938238
 Force constants in Cartesian coordinates: 
                1             2             3             4             5 
      1  0.240979D+00
      2  0.142679D-01  0.149816D+00
      3  0.116582D-01  0.489164D-02  0.180656D+00
      4 -0.160804D-02 -0.287817D-02 -0.318522D-02  0.142173D+00
      5 -0.425857D-02  0.599060D-02 -0.269605D-02  0.772799D-02  0.114249D+00
      6 -0.101755D-01 -0.467660D-02 -0.168347D-02  0.181547D-01  0.245517D-01
      7 -0.778105D-01  0.322320D-01  0.281416D-01  0.589921D-02  0.100764D-02
      8  0.404337D-02 -0.281747D-01 -0.130472D-01 -0.206617D-02  0.204160D-02
      9 -0.178448D-02 -0.109595D-01 -0.357449D-01 -0.270839D-02 -0.146147D-04
     10 -0.579510D-02 -0.390506D-02 -0.380500D-02 -0.345863D-01  0.125641D-02
     11  0.565392D-02  0.448366D-02  0.130518D-02  0.202015D-01 -0.319059D-01
     12 -0.274667D-02 -0.124609D-02  0.666348D-02  0.227942D-01 -0.273630D-01
     13 -0.469127D-01 -0.302613D-01  0.297051D-01  0.555695D-02 -0.108780D-02
     14 -0.144689D-01 -0.332490D-01  0.211274D-01  0.117886D-02  0.415384D-02
     15 -0.425956D-02  0.498525D-02 -0.428807D-01 -0.346364D-02 -0.447068D-02
     16 -0.360482D-02 -0.522049D-03 -0.271034D-02 -0.252253D-01 -0.683904D-02
     17 -0.910011D-02  0.140832D-02 -0.164404D-02 -0.906230D-02 -0.172125D-01
     18  0.132822D-02  0.149349D-02  0.597871D-02  0.184126D-01  0.195610D-01
     19 -0.291527D-01 -0.215932D-01 -0.901962D-02 -0.240003D-01  0.182467D-01
     20  0.118032D-01 -0.422474D-01 -0.238609D-02  0.686450D-03 -0.261882D-01
     21 -0.178901D-02 -0.125255D-01 -0.173945D-01 -0.180428D-01  0.149051D-01
     22 -0.299623D-01 -0.100579D-01 -0.231008D-01 -0.543022D-01 -0.383125D-02
     23  0.111187D-03 -0.190520D-01 -0.144927D-01 -0.142222D-01 -0.194379D-01
     24  0.169499D-01 -0.672103D-02 -0.561790D-01 -0.224071D-01 -0.870497D-02
     25 -0.461329D-01  0.227179D-01 -0.276838D-01 -0.139071D-01 -0.122221D-01
     26 -0.805198D-02 -0.389756D-01  0.694188D-02 -0.156591D-02 -0.316905D-01
     27 -0.918121D-02  0.247584D-01 -0.394153D-01 -0.955443D-02 -0.157685D-01
                6             7             8             9            10 
      6  0.186934D+00
      7  0.721490D-04  0.149231D+00
      8 -0.889722D-02 -0.253584D-01  0.143829D+00
      9 -0.327723D-02 -0.360490D-02  0.326456D-01  0.164692D+00
     10 -0.892455D-02 -0.457666D-01  0.705824D-02 -0.729330D-02  0.190509D+00
     11 -0.113522D-01 -0.115031D-01 -0.273711D-01 -0.167729D-01 -0.122830D-01
     12 -0.411471D-01 -0.405093D-01 -0.862716D-02 -0.469905D-01  0.646160D-02
     13 -0.230912D-02 -0.204231D-01  0.136652D-01 -0.819661D-02 -0.150583D-02
     14  0.418522D-02  0.351430D-02 -0.523744D-01  0.230467D-01  0.491130D-02
     15 -0.509352D-02  0.309211D-02 -0.146365D-01 -0.345925D-01 -0.260070D-02
     16 -0.952706D-02  0.188762D-02 -0.440344D-02  0.217012D-02 -0.280223D-01
     17 -0.586521D-02 -0.573273D-02 -0.530733D-02 -0.453762D-02 -0.116785D-01
     18 -0.494018D-01  0.162663D-02 -0.478195D-02  0.257557D-02  0.323935D-02
     19 -0.461198D-02  0.353213D-02  0.678194D-02  0.330624D-02 -0.962950D-03
     20 -0.130848D-01  0.990767D-03 -0.298264D-02 -0.762695D-02  0.966295D-02
     21 -0.294610D-01 -0.175697D-02 -0.121352D-02  0.385283D-02  0.506081D-03
     22  0.184536D-01  0.385568D-02  0.225284D-02  0.761735D-02 -0.316796D-02
     23  0.733095D-03 -0.229730D-02  0.414795D-02 -0.205827D-02  0.283380D-02
     24 -0.311802D-01  0.405992D-02 -0.681044D-02  0.257974D-03  0.615556D-02
     25 -0.113224D-02 -0.204053D-01 -0.197360D-02  0.104940D-01 -0.707024D-01
     26  0.144060D-01  0.714684D-02 -0.338079D-01 -0.137223D-01  0.214382D-02
     27 -0.256894D-01  0.887884D-02  0.253684D-01 -0.507736D-01  0.626095D-02
               11            12            13            14            15 
     11  0.135443D+00
     12  0.700582D-02  0.120320D+00
     13  0.516398D-02 -0.211100D-02  0.122004D+00
     14  0.517885D-02  0.441557D-02  0.138278D-01  0.134869D+00
     15  0.505942D-02 -0.226938D-02  0.238020D-02 -0.137841D-01  0.192271D+00
     16  0.204179D-01 -0.831176D-02 -0.467140D-01 -0.176795D-01 -0.641862D-02
     17 -0.520923D-01  0.161120D-01 -0.122702D-01 -0.280109D-01  0.566256D-02
     18  0.689910D-02 -0.185704D-01 -0.391025D-01 -0.131213D-01 -0.464287D-01
     19  0.132374D-02 -0.202962D-02 -0.213264D-01  0.110351D-01  0.377576D-02
     20 -0.788827D-03  0.927146D-03  0.823118D-02 -0.389440D-01  0.477316D-02
     21 -0.200876D-02  0.503295D-02  0.216141D-01 -0.313402D-01 -0.562134D-01
     22  0.506827D-02  0.169184D-02  0.303091D-02  0.302791D-03  0.627356D-02
     23  0.782973D-02  0.192037D-02  0.205053D-02  0.800658D-02  0.195276D-02
     24 -0.211602D-03  0.277065D-02  0.692146D-03  0.384571D-02 -0.351416D-02
     25 -0.340431D-01  0.247608D-01  0.629027D-02 -0.262171D-02  0.122089D-02
     26 -0.407773D-01  0.685540D-02  0.680610D-03  0.369539D-03  0.104582D-01
     27  0.100760D-01 -0.258093D-01 -0.267220D-02  0.162504D-02 -0.127865D-02
               16            17            18            19            20 
     16  0.157662D+00
     17  0.280547D-01  0.130049D+00
     18  0.973234D-03 -0.164840D-01  0.120856D+00
     19 -0.590268D-01  0.269786D-01  0.103319D-01  0.150136D+00
     20 -0.949236D-02 -0.297407D-01  0.760740D-02 -0.338304D-01  0.194095D+00
     21  0.123946D-01 -0.135851D-02 -0.203130D-01 -0.182692D-01  0.231460D-02
     22  0.145493D-03 -0.593918D-02  0.436902D-02 -0.241696D-01  0.112990D-01
     23 -0.164772D-02  0.335274D-02 -0.191063D-02 -0.151805D-01 -0.440978D-01
     24  0.712990D-02  0.239081D-02  0.274845D-02  0.172167D-01  0.118008D-02
     25  0.289811D-02 -0.125035D-02 -0.117845D-02  0.497061D-02  0.649189D-03
     26 -0.788849D-02 -0.244601D-02  0.736815D-03  0.623813D-02 -0.910562D-02
     27  0.429992D-02  0.572400D-02  0.255517D-02 -0.700180D-03  0.629541D-02
               21            22            23            24            25 
     21  0.143993D+00
     22  0.383887D-02  0.138261D+00
     23  0.299711D-01  0.157720D-02  0.107025D+00
     24 -0.351089D-01 -0.345749D-01  0.262742D-02  0.148968D+00
     25  0.150430D-02 -0.336912D-01  0.267751D-01  0.477785D-02  0.170680D+00
     26  0.125573D-02 -0.671794D-03 -0.477740D-01  0.124040D-01  0.196877D-02
     27  0.561203D-02  0.154316D-01 -0.187431D-01 -0.287624D-01 -0.127632D-01
               26            27 
     26  0.204207D+00
     27 -0.393356D-01  0.163561D+00
 Leave Link  716 at Thu Mar  8 06:58:08 2018, MaxMem=   536870912 cpu:         0.1
 (Enter /share/apps//mg09/l103.exe)

 GradGradGradGradGradGradGradGradGradGradGradGradGradGradGradGradGradGrad
 Berny optimization.
 Search for a local minimum.
 Step number   1 out of a maximum of  100
 All quantities printed in internal units (Hartrees-Bohrs-Radians)
 Second derivative matrix not updated -- first step.
 ITU=  0
     Eigenvalues ---    0.08643   0.11361   0.11527   0.12881   0.12983
     Eigenvalues ---    0.14395   0.14810   0.15357   0.16380   0.16796
     Eigenvalues ---    0.17188   0.21555   0.22998   0.23737   0.24648
     Eigenvalues ---    0.25983   0.27618   0.27828   0.28557   0.29886
     Eigenvalues ---    0.33225
 RFO step:  Lambda=-7.80866386D-03 EMin= 8.64252065D-02
 Linear search not attempted -- first point.
 TrRot= -0.000045  0.001836  0.002016 -0.240165 -0.000050  0.240121
 MatCor failed.
 Variable       Old X    -DE/DX   Delta X   Delta X   Delta X     New X
                                 (Linear)    (Quad)   (Total)
    X1       -4.06658   0.01130   0.00000   0.04938   0.04933  -4.01724
    Y1       -1.83024   0.00093   0.00000   0.01708   0.01907  -1.81117
    Z1       -1.72273   0.00289   0.00000   0.02274   0.02458  -1.69815
    X2        1.76972  -0.00612   0.00000  -0.03717  -0.03737   1.73235
    Y2        1.01835  -0.00494   0.00000  -0.03172  -0.02992   0.98844
    Z2        4.22839  -0.00935   0.00000  -0.06397  -0.06188   4.16651
    X3        0.62095  -0.00459   0.00000  -0.01717  -0.01722   0.60374
    Y3       -3.77242   0.01002   0.00000   0.06161   0.06338  -3.70904
    Z3       -3.44673   0.01042   0.00000   0.05763   0.05972  -3.38701
    X4        4.28158  -0.00982   0.00000  -0.05726  -0.05743   4.22415
    Y4       -2.51898   0.00209   0.00000   0.02614   0.02779  -2.49119
    Z4        0.44519  -0.00074   0.00000  -0.00863  -0.00638   0.43882
    X5       -0.53938   0.00141   0.00000   0.01271   0.01294  -0.52644
    Y5        1.24066  -0.00618   0.00000  -0.04249  -0.04068   1.19998
    Z5       -4.73415   0.01155   0.00000   0.06551   0.06748  -4.66667
    X6        3.34285  -0.00669   0.00000  -0.04082  -0.04068   3.30217
    Y6        2.89031  -0.00527   0.00000  -0.04502  -0.04334   2.84697
    Z6       -1.24225   0.00077   0.00000   0.00786   0.01000  -1.23225
    X7       -2.15183   0.00374   0.00000   0.02316   0.02327  -2.12856
    Y7        3.74350  -0.00734   0.00000  -0.05494  -0.05300   3.69050
    Z7        0.06100  -0.00046   0.00000  -0.00291  -0.00104   0.05995
    X8       -3.77892   0.00962   0.00000   0.06317   0.06292  -3.71600
    Y8       -0.35344  -0.00179   0.00000  -0.01470  -0.01265  -0.36609
    Z8        3.89734  -0.00818   0.00000  -0.05919  -0.05735   3.83999
    X9       -0.58909   0.00115   0.00000   0.00456   0.00423  -0.58486
    Y9       -4.43283   0.01247   0.00000   0.06747   0.06935  -4.36348
    Z9        1.86194  -0.00689   0.00000  -0.03718  -0.03514   1.82680
         Item               Value     Threshold  Converged?
 Maximum Force            0.012471     0.000450     NO 
 RMS     Force            0.006938     0.000300     NO 
 Maximum Displacement     0.069351     0.001800     NO 
 RMS     Displacement     0.042316     0.001200     NO 
 Predicted change in Energy=-4.093318D-03
 Lowest energy point so far.  Saving SCF results.
 GradGradGradGradGradGradGradGradGradGradGradGradGradGradGradGradGradGrad

 Leave Link  103 at Thu Mar  8 06:58:08 2018, MaxMem=   536870912 cpu:         0.1
 (Enter /share/apps//mg09/l202.exe)
                          Input orientation:                          
 ---------------------------------------------------------------------
 Center     Atomic      Atomic             Coordinates (Angstroms)
 Number     Number       Type             X           Y           Z
 ---------------------------------------------------------------------
      1         83           0       -2.125834   -0.958430   -0.898621
      2         50           0        0.916722    0.523058    2.204820
      3         32           0        0.319485   -1.962739   -1.792330
      4         83           0        2.235324   -1.318282    0.232211
      5         32           0       -0.278580    0.635002   -2.469493
      6         83           0        1.747432    1.506552   -0.652079
      7         83           0       -1.126383    1.952929    0.031726
      8         50           0       -1.966422   -0.193726    2.032034
      9         32           0       -0.309492   -2.309053    0.966702
 ---------------------------------------------------------------------
                    Distance matrix (angstroms):
                    1          2          3          4          5
     1  Bi   0.000000
     2  Sn   4.591655   0.000000
     3  Ge   2.790508   4.744796   0.000000
     4  Bi   4.519731   3.003403   2.860862   0.000000
     5  Ge   2.901553   4.826022   2.750362   4.175433   0.000000
     6  Bi   4.597729   3.133562   3.921120   2.999949   2.857852
     7  Bi   3.215658   3.307740   4.555236   4.694900   2.951576
     8  Sn   3.032973   2.975929   4.793803   4.707298   4.878458
     9  Ge   2.933037   3.325266   2.850930   2.827931   4.525025
                    6          7          8          9
     6  Bi   0.000000
     7  Bi   2.987584   0.000000
     8  Sn   4.887547   3.052052   0.000000
     9  Ge   4.627119   4.439142   2.890494   0.000000
 Stoichiometry    Bi4Ge3Sn2
 Framework group  C1[X(Bi4Ge3Sn2)]
 Deg. of freedom    21
 Full point group                 C1      NOp   1
 RotChk:  IX=0 Diff= 1.23D-02
 Largest Abelian subgroup         C1      NOp   1
 Largest concise Abelian subgroup C1      NOp   1
                         Standard orientation:                         
 ---------------------------------------------------------------------
 Center     Atomic      Atomic             Coordinates (Angstroms)
 Number     Number       Type             X           Y           Z
 ---------------------------------------------------------------------
      1         83           0       -2.125774   -0.943723   -0.908013
      2         50           0        0.916247    0.506117    2.210861
      3         32           0        0.318659   -1.944859   -1.807683
      4         83           0        2.233574   -1.320912    0.224144
      5         32           0       -0.274070    0.659561   -2.463547
      6         83           0        1.751636    1.512139   -0.636815
      7         83           0       -1.122076    1.957900    0.047828
      8         50           0       -1.967995   -0.204009    2.029138
      9         32           0       -0.313758   -2.313263    0.947699
 ---------------------------------------------------------------------
 Rotational constants (GHZ):      0.1085027      0.0910037      0.0836840
 Leave Link  202 at Thu Mar  8 06:58:09 2018, MaxMem=   536870912 cpu:         0.0
 (Enter /share/apps//mg09/l301.exe)
 Standard basis: def2TZVP (5D, 7F)
 Ernie: Thresh=  0.10000D-02 Tol=  0.10000D-05 Strict=F.
 There are   519 symmetry adapted cartesian basis functions of A   symmetry.
 There are   444 symmetry adapted basis functions of A   symmetry.
   444 basis functions,   963 primitive gaussians,   519 cartesian basis functions
   116 alpha electrons      116 beta electrons
       nuclear repulsion energy      3600.3820882570 Hartrees.
 IExCor= 1009 DFT=T Ex+Corr=PBE1PBE ExCW=0 ScaHFX=  0.250000
 ScaDFX=  0.750000  0.750000  1.000000  1.000000 ScalE2=  1.000000  1.000000
 IRadAn=      0 IRanWt=     -1 IRanGd=            0 ICorTp=0 IEmpDi=  4
 NAtoms=    9 NActive=    9 NUniq=    9 SFac= 1.00D+00 NAtFMM=   60 NAOKFM=F Big=F
 Integral buffers will be    131072 words long.
 Raffenetti 2 integral format.
 Two-electron integral symmetry is turned on.
 Leave Link  301 at Thu Mar  8 06:58:09 2018, MaxMem=   536870912 cpu:         0.2
 (Enter /share/apps//mg09/l302.exe)
 NPDir=0 NMtPBC=     1 NCelOv=     1 NCel=       1 NClECP=     1 NCelD=      1
         NCelK=      1 NCelE2=     1 NClLst=     1 CellRange=     0.0.
 One-electron integrals computed using PRISM.
   1 Symmetry operations used in ECPInt.
 ECPInt:  NShTT=   10440 NPrTT=   41973 LenC2=    9696 LenP2D=   27602.
 LDataN:  DoStor=T MaxTD1= 8 Len=  415
 NBasis=   444 RedAO= T EigKep=  1.15D-03  NBF=   444
 NBsUse=   444 1.00D-06 EigRej= -1.00D+00 NBFU=   444
 Precomputing XC quadrature grid using
 IXCGrd= 4 IRadAn=           0 IRanWt=          -1 IRanGd=           0 AccXCQ= 0.00D+00.
 Defaulting to unpruned grid for atomic number  83.
 Defaulting to unpruned grid for atomic number  83.
 Defaulting to unpruned grid for atomic number  83.
 Generated NRdTot=       0 NPtTot=           0 NUsed=           0 NTot=          32
 NSgBfM=   502   502   502   502   502 MxSgAt=     9 MxSgA2=     9.
 Leave Link  302 at Thu Mar  8 06:58:16 2018, MaxMem=   536870912 cpu:        26.2
 (Enter /share/apps//mg09/l303.exe)
 DipDrv:  MaxL=1.
 Leave Link  303 at Thu Mar  8 06:58:16 2018, MaxMem=   536870912 cpu:         0.2
 (Enter /share/apps//mg09/l401.exe)
 Initial guess from the checkpoint file:  "Isomer_47.chk"
 B after Tr=     0.000000    0.000000    0.000000
         Rot=    0.999990   -0.004280    0.000432    0.000878 Ang=  -0.50 deg.
 Guess basis will be translated and rotated to current coordinates.
 JPrj=2 DoOrth=T DoCkMO=T.
 Generating alternative initial guess.
 ExpMin= 4.62D-02 ExpMax= 4.66D+05 ExpMxC= 4.50D+03 IAcc=2 IRadAn=         4 AccDes= 0.00D+00
 Harris functional with IExCor= 1009 and IRadAn=       4 diagonalized for initial guess.
 HarFok:  IExCor= 1009 AccDes= 0.00D+00 IRadAn=         4 IDoV= 1 UseB2=F ITyADJ=14
 ICtDFT=  3500011 ScaDFX=  1.000000  1.000000  1.000000  1.000000
 Defaulting to unpruned grid for atomic number  83.
 Defaulting to unpruned grid for atomic number  83.
 Defaulting to unpruned grid for atomic number  83.
 Defaulting to unpruned grid for atomic number  83.
 FoFCou: FMM=F IPFlag=           0 FMFlag=      100000 FMFlg1=           0
         NFxFlg=           0 DoJE=T BraDBF=F KetDBF=T FulRan=T
         wScrn=  0.000000 ICntrl=     500 IOpCl=  0 I1Cent=   200000004 NGrid=           0
         NMat0=    1 NMatS0=      1 NMatT0=    0 NMatD0=    1 NMtDS0=    0 NMtDT0=    0
 Petite list used in FoFCou.
 Harris En= -7518.60991940605    
 Leave Link  401 at Thu Mar  8 06:58:19 2018, MaxMem=   536870912 cpu:        11.4
 (Enter /share/apps//mg09/l502.exe)
 Closed shell SCF:
 Using DIIS extrapolation, IDIIS=  1040.
 Integral symmetry usage will be decided dynamically.
 IVT=     1410107 IEndB=     1410107 NGot=   536870912 MDV=   536322046
 LenX=   536322046 LenY=   536052166
 Requested convergence on RMS density matrix=1.00D-08 within 768 cycles.
 Requested convergence on MAX density matrix=1.00D-06.
 Requested convergence on             energy=1.00D-06.
 No special actions if energy rises.
 Fock matrices will be formed incrementally for  20 cycles.

 Cycle   1  Pass 1  IDiag  1:
 FoFJK:  IHMeth= 1 ICntrl=       0 DoSepK=F KAlg= 0 I1Cent=   0 FoldK=F
 IRaf= 880000000 NMat=   1 IRICut=       1 DoRegI=T DoRafI=F ISym2E= 0.
 FoFCou: FMM=F IPFlag=           0 FMFlag=      100000 FMFlg1=           0
         NFxFlg=           0 DoJE=F BraDBF=F KetDBF=F FulRan=T
         wScrn=  0.000000 ICntrl=       0 IOpCl=  0 I1Cent=           0 NGrid=           0
         NMat0=    1 NMatS0=      1 NMatT0=    0 NMatD0=    1 NMtDS0=    0 NMtDT0=    0
 Symmetry not used in FoFCou.
 Defaulting to unpruned grid for atomic number  83.
 Defaulting to unpruned grid for atomic number  83.
 Defaulting to unpruned grid for atomic number  83.
 Defaulting to unpruned grid for atomic number  83.
 E= -7517.81088287740    
 DIIS: error= 4.80D-03 at cycle   1 NSaved=   1.
 NSaved= 1 IEnMin= 1 EnMin= -7517.81088287740     IErMin= 1 ErrMin= 4.80D-03
 ErrMax= 4.80D-03  0.00D+00 EMaxC= 1.00D-01 BMatC= 8.07D-03 BMatP= 8.07D-03
 IDIUse=3 WtCom= 9.52D-01 WtEn= 4.80D-02
 Coeff-Com:  0.100D+01
 Coeff-En:   0.100D+01
 Coeff:      0.100D+01
 Gap=     8.241 Goal=   None    Shift=    0.000
 GapD=    8.241 DampG=2.000 DampE=1.000 DampFc=2.0000 IDamp=-1.
 RMSDP=1.75D-04 MaxDP=4.74D-03              OVMax= 1.91D-02

 Cycle   2  Pass 1  IDiag  1:
 RMSU=  1.74D-04    CP:  1.00D+00
 E= -7517.81094673787     Delta-E=       -0.000063860471 Rises=F Damp=F
 DIIS: error= 1.34D-03 at cycle   2 NSaved=   2.
 NSaved= 2 IEnMin= 2 EnMin= -7517.81094673787     IErMin= 2 ErrMin= 1.34D-03
 ErrMax= 1.34D-03  0.00D+00 EMaxC= 1.00D-01 BMatC= 1.48D-03 BMatP= 8.07D-03
 IDIUse=3 WtCom= 9.87D-01 WtEn= 1.34D-02
 Coeff-Com:  0.194D+00 0.806D+00
 Coeff-En:   0.480D+00 0.520D+00
 Coeff:      0.198D+00 0.802D+00
 Gap=     0.119 Goal=   None    Shift=    0.000
 RMSDP=1.96D-04 MaxDP=7.46D-03 DE=-6.39D-05 OVMax= 1.47D-02

 Cycle   3  Pass 1  IDiag  1:
 RMSU=  1.79D-04    CP:  9.99D-01  5.73D-01
 E= -7517.80933796434     Delta-E=        0.001608773531 Rises=F Damp=F
 DIIS: error= 1.95D-03 at cycle   3 NSaved=   3.
 NSaved= 3 IEnMin= 2 EnMin= -7517.81094673787     IErMin= 2 ErrMin= 1.34D-03
 ErrMax= 1.95D-03  0.00D+00 EMaxC= 1.00D-01 BMatC= 3.44D-03 BMatP= 1.48D-03
 IDIUse=3 WtCom= 1.85D-01 WtEn= 8.15D-01
 Coeff-Com:  0.486D-02 0.603D+00 0.393D+00
 Coeff-En:   0.000D+00 0.659D+00 0.341D+00
 Coeff:      0.898D-03 0.649D+00 0.350D+00
 Gap=     0.120 Goal=   None    Shift=    0.000
 RMSDP=1.06D-04 MaxDP=4.49D-03 DE= 1.61D-03 OVMax= 1.05D-02

 Cycle   4  Pass 1  IDiag  1:
 RMSU=  3.46D-05    CP:  9.99D-01  8.20D-01  4.99D-01
 E= -7517.81196986366     Delta-E=       -0.002631899326 Rises=F Damp=F
 DIIS: error= 3.60D-04 at cycle   4 NSaved=   4.
 NSaved= 4 IEnMin= 4 EnMin= -7517.81196986366     IErMin= 4 ErrMin= 3.60D-04
 ErrMax= 3.60D-04  0.00D+00 EMaxC= 1.00D-01 BMatC= 1.46D-04 BMatP= 1.48D-03
 IDIUse=3 WtCom= 9.96D-01 WtEn= 3.60D-03
 Coeff-Com: -0.179D-03 0.423D+00 0.230D+00 0.348D+00
 Coeff-En:   0.000D+00 0.540D-01 0.000D+00 0.946D+00
 Coeff:     -0.178D-03 0.421D+00 0.229D+00 0.350D+00
 Gap=     0.120 Goal=   None    Shift=    0.000
 RMSDP=3.33D-05 MaxDP=1.46D-03 DE=-2.63D-03 OVMax= 3.44D-03

 Cycle   5  Pass 1  IDiag  1:
 RMSU=  1.46D-05    CP:  9.99D-01  8.71D-01  4.49D-01  2.22D-01
 E= -7517.81208010893     Delta-E=       -0.000110245268 Rises=F Damp=F
 DIIS: error= 1.09D-04 at cycle   5 NSaved=   5.
 NSaved= 5 IEnMin= 5 EnMin= -7517.81208010893     IErMin= 5 ErrMin= 1.09D-04
 ErrMax= 1.09D-04  0.00D+00 EMaxC= 1.00D-01 BMatC= 1.52D-05 BMatP= 1.46D-04
 IDIUse=3 WtCom= 9.99D-01 WtEn= 1.09D-03
 Coeff-Com: -0.905D-03 0.218D+00 0.106D+00 0.276D+00 0.401D+00
 Coeff-En:   0.000D+00 0.000D+00 0.000D+00 0.146D+00 0.854D+00
 Coeff:     -0.904D-03 0.218D+00 0.105D+00 0.276D+00 0.402D+00
 Gap=     0.120 Goal=   None    Shift=    0.000
 RMSDP=1.11D-05 MaxDP=6.47D-04 DE=-1.10D-04 OVMax= 1.38D-03

 Cycle   6  Pass 1  IDiag  1:
 RMSU=  4.05D-06    CP:  9.99D-01  8.78D-01  4.44D-01  4.37D-01  5.39D-01
 E= -7517.81209784509     Delta-E=       -0.000017736160 Rises=F Damp=F
 DIIS: error= 1.47D-05 at cycle   6 NSaved=   6.
 NSaved= 6 IEnMin= 6 EnMin= -7517.81209784509     IErMin= 6 ErrMin= 1.47D-05
 ErrMax= 1.47D-05  0.00D+00 EMaxC= 1.00D-01 BMatC= 4.68D-07 BMatP= 1.52D-05
 IDIUse=1 WtCom= 1.00D+00 WtEn= 0.00D+00
 Coeff-Com: -0.458D-03 0.829D-01 0.399D-01 0.117D+00 0.218D+00 0.542D+00
 Coeff:     -0.458D-03 0.829D-01 0.399D-01 0.117D+00 0.218D+00 0.542D+00
 Gap=     0.120 Goal=   None    Shift=    0.000
 RMSDP=3.20D-06 MaxDP=1.21D-04 DE=-1.77D-05 OVMax= 4.34D-04

 Cycle   7  Pass 1  IDiag  1:
 RMSU=  2.64D-06    CP:  9.99D-01  8.82D-01  4.45D-01  4.35D-01  6.14D-01
                    CP:  7.00D-01
 E= -7517.81209787072     Delta-E=       -0.000000025633 Rises=F Damp=F
 DIIS: error= 1.81D-05 at cycle   7 NSaved=   7.
 NSaved= 7 IEnMin= 7 EnMin= -7517.81209787072     IErMin= 6 ErrMin= 1.47D-05
 ErrMax= 1.81D-05  0.00D+00 EMaxC= 1.00D-01 BMatC= 4.07D-07 BMatP= 4.68D-07
 IDIUse=1 WtCom= 1.00D+00 WtEn= 0.00D+00
 Coeff-Com: -0.167D-03 0.152D-01 0.780D-02 0.316D-01 0.894D-01 0.478D+00
 Coeff-Com:  0.378D+00
 Coeff:     -0.167D-03 0.152D-01 0.780D-02 0.316D-01 0.894D-01 0.478D+00
 Coeff:      0.378D+00
 Gap=     0.120 Goal=   None    Shift=    0.000
 RMSDP=2.15D-06 MaxDP=8.83D-05 DE=-2.56D-08 OVMax= 2.73D-04

 Cycle   8  Pass 1  IDiag  1:
 RMSU=  1.05D-06    CP:  9.99D-01  8.83D-01  4.47D-01  4.32D-01  6.26D-01
                    CP:  9.39D-01  4.19D-01
 E= -7517.81209834044     Delta-E=       -0.000000469719 Rises=F Damp=F
 DIIS: error= 6.31D-06 at cycle   8 NSaved=   8.
 NSaved= 8 IEnMin= 8 EnMin= -7517.81209834044     IErMin= 8 ErrMin= 6.31D-06
 ErrMax= 6.31D-06  0.00D+00 EMaxC= 1.00D-01 BMatC= 6.36D-08 BMatP= 4.07D-07
 IDIUse=1 WtCom= 1.00D+00 WtEn= 0.00D+00
 Coeff-Com:  0.708D-05-0.145D-01-0.617D-02-0.111D-01 0.410D-02 0.229D+00
 Coeff-Com:  0.308D+00 0.491D+00
 Coeff:      0.708D-05-0.145D-01-0.617D-02-0.111D-01 0.410D-02 0.229D+00
 Coeff:      0.308D+00 0.491D+00
 Gap=     0.120 Goal=   None    Shift=    0.000
 RMSDP=8.27D-07 MaxDP=5.63D-05 DE=-4.70D-07 OVMax= 8.07D-05

 Cycle   9  Pass 1  IDiag  1:
 RMSU=  2.97D-07    CP:  9.99D-01  8.83D-01  4.49D-01  4.36D-01  6.34D-01
                    CP:  9.82D-01  5.84D-01  4.91D-01
 E= -7517.81209841354     Delta-E=       -0.000000073102 Rises=F Damp=F
 DIIS: error= 1.20D-06 at cycle   9 NSaved=   9.
 NSaved= 9 IEnMin= 9 EnMin= -7517.81209841354     IErMin= 9 ErrMin= 1.20D-06
 ErrMax= 1.20D-06  0.00D+00 EMaxC= 1.00D-01 BMatC= 4.02D-09 BMatP= 6.36D-08
 IDIUse=1 WtCom= 1.00D+00 WtEn= 0.00D+00
 Coeff-Com:  0.206D-04-0.103D-01-0.436D-02-0.951D-02-0.679D-02 0.938D-01
 Coeff-Com:  0.153D+00 0.305D+00 0.479D+00
 Coeff:      0.206D-04-0.103D-01-0.436D-02-0.951D-02-0.679D-02 0.938D-01
 Coeff:      0.153D+00 0.305D+00 0.479D+00
 Gap=     0.120 Goal=   None    Shift=    0.000
 RMSDP=2.40D-07 MaxDP=1.13D-05 DE=-7.31D-08 OVMax= 3.59D-05

 Cycle  10  Pass 1  IDiag  1:
 RMSU=  1.64D-07    CP:  9.99D-01  8.83D-01  4.49D-01  4.38D-01  6.39D-01
                    CP:  9.82D-01  5.87D-01  5.87D-01  6.70D-01
 E= -7517.81209841683     Delta-E=       -0.000000003283 Rises=F Damp=F
 DIIS: error= 1.10D-06 at cycle  10 NSaved=  10.
 NSaved=10 IEnMin=10 EnMin= -7517.81209841683     IErMin=10 ErrMin= 1.10D-06
 ErrMax= 1.10D-06  0.00D+00 EMaxC= 1.00D-01 BMatC= 1.17D-09 BMatP= 4.02D-09
 IDIUse=1 WtCom= 1.00D+00 WtEn= 0.00D+00
 Coeff-Com:  0.152D-04-0.642D-02-0.270D-02-0.623D-02-0.588D-02 0.480D-01
 Coeff-Com:  0.862D-01 0.183D+00 0.370D+00 0.334D+00
 Coeff:      0.152D-04-0.642D-02-0.270D-02-0.623D-02-0.588D-02 0.480D-01
 Coeff:      0.862D-01 0.183D+00 0.370D+00 0.334D+00
 Gap=     0.120 Goal=   None    Shift=    0.000
 RMSDP=1.12D-07 MaxDP=3.94D-06 DE=-3.28D-09 OVMax= 1.30D-05

 Cycle  11  Pass 1  IDiag  1:
 RMSU=  6.38D-08    CP:  9.99D-01  8.83D-01  4.49D-01  4.38D-01  6.39D-01
                    CP:  9.85D-01  5.84D-01  5.94D-01  8.19D-01  5.27D-01
 E= -7517.81209841814     Delta-E=       -0.000000001310 Rises=F Damp=F
 DIIS: error= 2.89D-07 at cycle  11 NSaved=  11.
 NSaved=11 IEnMin=11 EnMin= -7517.81209841814     IErMin=11 ErrMin= 2.89D-07
 ErrMax= 2.89D-07  0.00D+00 EMaxC= 1.00D-01 BMatC= 1.43D-10 BMatP= 1.17D-09
 IDIUse=1 WtCom= 1.00D+00 WtEn= 0.00D+00
 Coeff-Com:  0.106D-05 0.222D-03 0.163D-03-0.599D-04-0.114D-02-0.104D-01
 Coeff-Com: -0.888D-02-0.122D-01 0.636D-01 0.263D+00 0.706D+00
 Coeff:      0.106D-05 0.222D-03 0.163D-03-0.599D-04-0.114D-02-0.104D-01
 Coeff:     -0.888D-02-0.122D-01 0.636D-01 0.263D+00 0.706D+00
 Gap=     0.120 Goal=   None    Shift=    0.000
 RMSDP=4.99D-08 MaxDP=1.76D-06 DE=-1.31D-09 OVMax= 8.67D-06

 Cycle  12  Pass 1  IDiag  1:
 RMSU=  2.19D-08    CP:  9.99D-01  8.83D-01  4.49D-01  4.38D-01  6.40D-01
                    CP:  9.89D-01  5.91D-01  5.97D-01  8.49D-01  7.19D-01
                    CP:  8.41D-01
 E= -7517.81209841826     Delta-E=       -0.000000000122 Rises=F Damp=F
 DIIS: error= 9.41D-08 at cycle  12 NSaved=  12.
 NSaved=12 IEnMin=12 EnMin= -7517.81209841826     IErMin=12 ErrMin= 9.41D-08
 ErrMax= 9.41D-08  0.00D+00 EMaxC= 1.00D-01 BMatC= 1.27D-11 BMatP= 1.43D-10
 IDIUse=1 WtCom= 1.00D+00 WtEn= 0.00D+00
 Coeff-Com: -0.524D-06 0.567D-03 0.280D-03 0.379D-03-0.860D-04-0.880D-02
 Coeff-Com: -0.106D-01-0.197D-01 0.947D-02 0.114D+00 0.396D+00 0.518D+00
 Coeff:     -0.524D-06 0.567D-03 0.280D-03 0.379D-03-0.860D-04-0.880D-02
 Coeff:     -0.106D-01-0.197D-01 0.947D-02 0.114D+00 0.396D+00 0.518D+00
 Gap=     0.120 Goal=   None    Shift=    0.000
 RMSDP=1.36D-08 MaxDP=1.01D-06 DE=-1.22D-10 OVMax= 1.45D-06

 Cycle  13  Pass 1  IDiag  1:
 RMSU=  7.86D-09    CP:  9.99D-01  8.83D-01  4.49D-01  4.38D-01  6.40D-01
                    CP:  9.90D-01  5.92D-01  5.97D-01  8.62D-01  7.30D-01
                    CP:  9.27D-01  7.32D-01
 E= -7517.81209841835     Delta-E=       -0.000000000089 Rises=F Damp=F
 DIIS: error= 2.79D-08 at cycle  13 NSaved=  13.
 NSaved=13 IEnMin=13 EnMin= -7517.81209841835     IErMin=13 ErrMin= 2.79D-08
 ErrMax= 2.79D-08  0.00D+00 EMaxC= 1.00D-01 BMatC= 1.11D-12 BMatP= 1.27D-11
 IDIUse=1 WtCom= 1.00D+00 WtEn= 0.00D+00
 Coeff-Com: -0.438D-06 0.268D-03 0.122D-03 0.210D-03 0.158D-03-0.304D-02
 Coeff-Com: -0.437D-02-0.877D-02-0.608D-02 0.174D-01 0.988D-01 0.272D+00
 Coeff-Com:  0.634D+00
 Coeff:     -0.438D-06 0.268D-03 0.122D-03 0.210D-03 0.158D-03-0.304D-02
 Coeff:     -0.437D-02-0.877D-02-0.608D-02 0.174D-01 0.988D-01 0.272D+00
 Coeff:      0.634D+00
 Gap=     0.120 Goal=   None    Shift=    0.000
 RMSDP=4.43D-09 MaxDP=3.08D-07 DE=-8.91D-11 OVMax= 6.01D-07

 SCF Done:  E(RPBE1PBE) =  -7517.81209842     A.U. after   13 cycles
            NFock= 13  Conv=0.44D-08     -V/T= 2.1284
 KE= 6.662160837210D+03 PE=-2.479222039675D+04 EE= 7.011865372867D+03
 Leave Link  502 at Thu Mar  8 07:07:49 2018, MaxMem=   536870912 cpu:      2276.4
 (Enter /share/apps//mg09/l701.exe)
 Compute integral first derivatives.
 ... and contract with generalized density number  0.
   1 Symmetry operations used in ECPInt.
 ECPInt:  NShTT=   10440 NPrTT=   41973 LenC2=    9696 LenP2D=   27602.
 LDataN:  DoStor=T MaxTD1= 9 Len=  602
 Leave Link  701 at Thu Mar  8 07:08:06 2018, MaxMem=   536870912 cpu:        67.0
 (Enter /share/apps//mg09/l702.exe)
 L702 exits ... SP integral derivatives will be done elsewhere.
 Leave Link  702 at Thu Mar  8 07:08:06 2018, MaxMem=   536870912 cpu:         0.1
 (Enter /share/apps//mg09/l703.exe)
 Compute integral first derivatives, UseDBF=F ICtDFT=           0.
 Integral derivatives from FoFJK, PRISM(SPDF).
 Calling FoFJK, ICntrl=      2127 FMM=F ISym2X=0 I1Cent= 0 IOpClX= 0 NMat=1 NMatS=1 NMatT=0.
 FoFJK:  IHMeth= 1 ICntrl=    2127 DoSepK=F KAlg= 0 I1Cent=   0 FoldK=F
 IRaf=         0 NMat=   1 IRICut=       1 DoRegI=T DoRafI=F ISym2E= 0.
 FoFCou: FMM=F IPFlag=           0 FMFlag=      100000 FMFlg1=         800
         NFxFlg=           0 DoJE=F BraDBF=F KetDBF=F FulRan=T
         wScrn=  0.000000 ICntrl=    2127 IOpCl=  0 I1Cent=           0 NGrid=           0
         NMat0=    1 NMatS0=      1 NMatT0=    0 NMatD0=    1 NMtDS0=    0 NMtDT0=    0
 Symmetry not used in FoFCou.
 Defaulting to unpruned grid for atomic number  83.
 Defaulting to unpruned grid for atomic number  83.
 Defaulting to unpruned grid for atomic number  83.
 Defaulting to unpruned grid for atomic number  83.
 Leave Link  703 at Thu Mar  8 07:10:55 2018, MaxMem=   536870912 cpu:       674.3
 (Enter /share/apps//mg09/l716.exe)
 Dipole        = 6.48940958D-02 4.74353193D-01 2.97480264D-01
 ***** Axes restored to original set *****
 -------------------------------------------------------------------
 Center     Atomic                   Forces (Hartrees/Bohr)
 Number     Number              X              Y              Z
 -------------------------------------------------------------------
      1       83           0.003756965   -0.000641610   -0.000147771
      2       50          -0.003568526   -0.002590131   -0.004054178
      3       32          -0.002445183    0.005148893    0.005503418
      4       83          -0.002897131   -0.001869384    0.000037263
      5       32           0.000889470   -0.003962062    0.005537892
      6       83          -0.001577834   -0.000266953   -0.000948815
      7       83           0.000544592   -0.001221349    0.000231354
      8       50           0.004308080   -0.001703062   -0.002428897
      9       32           0.000989566    0.007105658   -0.003730266
 -------------------------------------------------------------------
 Cartesian Forces:  Max     0.007105658 RMS     0.003164028
 Leave Link  716 at Thu Mar  8 07:10:55 2018, MaxMem=   536870912 cpu:         0.1
 (Enter /share/apps//mg09/l103.exe)

 GradGradGradGradGradGradGradGradGradGradGradGradGradGradGradGradGradGrad
 Berny optimization.
 Search for a local minimum.
 Step number   2 out of a maximum of  100
 All quantities printed in internal units (Hartrees-Bohrs-Radians)
 Update second derivatives using D2CorN and points    1    2
 DE= -5.56D-03 DEPred=-4.09D-03 R= 1.36D+00
 TightC=F SS=  1.41D+00  RLast= 2.20D-01 DXNew= 5.0454D-01 6.5963D-01
 Trust test= 1.36D+00 RLast= 2.20D-01 DXMaxT set to 5.05D-01
 ITU=  1  0
     Eigenvalues ---    0.08642   0.09152   0.11395   0.11596   0.12885
     Eigenvalues ---    0.13412   0.14419   0.15318   0.16169   0.16726
     Eigenvalues ---    0.17183   0.21543   0.22987   0.23751   0.24539
     Eigenvalues ---    0.25971   0.27610   0.27849   0.28349   0.29851
     Eigenvalues ---    0.33214
 RFO step:  Lambda=-4.17563575D-04 EMin= 8.64184676D-02
 Quartic linear search produced a step of  0.61061.
 TrRot=  0.000026  0.000234  0.000195 -0.704822 -0.000067  0.704804
 MatCor failed.
 Variable       Old X    -DE/DX   Delta X   Delta X   Delta X     New X
                                 (Linear)    (Quad)   (Total)
    X1       -4.01724   0.00376   0.03012  -0.00501   0.02519  -3.99205
    Y1       -1.81117  -0.00064   0.01165  -0.00346   0.00842  -1.80275
    Z1       -1.69815  -0.00015   0.01501  -0.00656   0.00852  -1.68963
    X2        1.73235  -0.00357  -0.02282  -0.00524  -0.02823   1.70413
    Y2        0.98844  -0.00259  -0.01827  -0.00326  -0.02115   0.96729
    Z2        4.16651  -0.00405  -0.03779  -0.00415  -0.04170   4.12481
    X3        0.60374  -0.00245  -0.01051  -0.00352  -0.01391   0.58983
    Y3       -3.70904   0.00515   0.03870   0.00735   0.04613  -3.66291
    Z3       -3.38701   0.00550   0.03646   0.01158   0.04843  -3.33858
    X4        4.22415  -0.00290  -0.03507   0.00734  -0.02777   4.19638
    Y4       -2.49119  -0.00187   0.01697  -0.01983  -0.00268  -2.49388
    Z4        0.43882   0.00004  -0.00389   0.00308  -0.00030   0.43851
    X5       -0.52644   0.00089   0.00790   0.00317   0.01135  -0.51509
    Y5        1.19998  -0.00396  -0.02484  -0.00863  -0.03343   1.16655
    Z5       -4.66667   0.00554   0.04121   0.00625   0.04757  -4.61910
    X6        3.30217  -0.00158  -0.02484   0.00885  -0.01585   3.28632
    Y6        2.84697  -0.00027  -0.02647   0.01436  -0.01198   2.83499
    Z6       -1.23225  -0.00095   0.00611  -0.01074  -0.00440  -1.23665
    X7       -2.12856   0.00054   0.01421  -0.00920   0.00510  -2.12345
    Y7        3.69050  -0.00122  -0.03236   0.01066  -0.02143   3.66907
    Z7        0.05995   0.00023  -0.00064   0.00151   0.00081   0.06076
    X8       -3.71600   0.00431   0.03842   0.00234   0.04059  -3.67541
    Y8       -0.36609  -0.00170  -0.00772  -0.01056  -0.01782  -0.38390
    Z8        3.83999  -0.00243  -0.03502   0.00452  -0.03047   3.80952
    X9       -0.58486   0.00099   0.00258   0.00107   0.00351  -0.58134
    Y9       -4.36348   0.00711   0.04235   0.01127   0.05394  -4.30954
    Z9        1.82680  -0.00373  -0.02146  -0.00736  -0.02846   1.79834
         Item               Value     Threshold  Converged?
 Maximum Force            0.007106     0.000450     NO 
 RMS     Force            0.003164     0.000300     NO 
[...]
     X     X        X     X         X   X  X     X     X  X         X X                                           X                  
     X     X        X     X         X   X  X              X         X X                                           X                  
     X     X        X     X         X   X  X              X                                                       X                  
     X     X        X     X         X   X  X              X                                                       X                  
     X     X        X     X         X   X  X                                                                                         
     X     X        X     X         X   X  X                                                                                         
     X     X        X     X             X  X                                                                                         
     X     X        X                   X  X                                                                                         
     X     X        X                   X  X                                                                                         
     X     X        X                   X  X                                                                                         
     X     X        X                   X  X                                                                                         
     X     X        X                      X                                                                                         
     X     X        X                      X                                                                                         
     X     X        X                                                                                                                
           X                                                                                                                         
 
 ***** Axes restored to original set *****
 -------------------------------------------------------------------
 Center     Atomic                   Forces (Hartrees/Bohr)
 Number     Number              X              Y              Z
 -------------------------------------------------------------------
      1       83          -0.000021901   -0.000098914   -0.000001097
      2       50           0.000019038   -0.000016310   -0.000009798
      3       32           0.000032314    0.000054730   -0.000038928
      4       83           0.000020473    0.000005941   -0.000002593
      5       32          -0.000028470    0.000017498    0.000070335
      6       83          -0.000020022    0.000004175    0.000027005
      7       83          -0.000017888    0.000055868   -0.000023849
      8       50           0.000048258   -0.000010921   -0.000002097
      9       32          -0.000031804   -0.000012067   -0.000018978
 -------------------------------------------------------------------
 Cartesian Forces:  Max     0.000098914 RMS     0.000034532
 Force constants in Cartesian coordinates: 
                1             2             3             4             5 
      1  0.916876D-01
      2  0.427271D-02  0.400311D-01
      3 -0.660882D-03  0.182161D-02  0.694826D-01
      4 -0.949254D-03 -0.200790D-02 -0.691751D-02  0.566442D-01
      5  0.402075D-03 -0.458848D-02 -0.127126D-02  0.316616D-03  0.284911D-01
      6 -0.123391D-02 -0.546473D-03 -0.406821D-02 -0.276122D-02  0.123753D-01
      7 -0.418321D-01  0.166021D-01  0.121682D-01  0.879293D-03 -0.593465D-02
      8  0.142324D-01 -0.280987D-02 -0.600465D-02 -0.935581D-03 -0.282316D-02
      9  0.932915D-02 -0.929448D-02 -0.578704D-02  0.336210D-02 -0.531204D-02
     10 -0.513931D-02  0.116751D-02 -0.812823D-03 -0.108926D-01  0.117540D-01
     11 -0.195066D-02 -0.217870D-02  0.292560D-03  0.110306D-01 -0.126646D-01
     12 -0.350147D-03  0.338286D-02 -0.180387D-02  0.105805D-01 -0.154741D-01
     13 -0.160087D-01 -0.180965D-01  0.101241D-01 -0.181475D-02  0.387791D-02
     14 -0.158339D-01 -0.755576D-02  0.104990D-01  0.171162D-02  0.864159D-03
     15  0.779646D-02  0.116220D-01 -0.119637D-01  0.266794D-03  0.328526D-02
     16 -0.551455D-02 -0.442771D-02  0.122296D-02 -0.405571D-02 -0.575952D-02
     17  0.120456D-02 -0.370161D-02 -0.701350D-03 -0.441172D-02  0.896949D-04
     18 -0.406144D-03 -0.348764D-02  0.113843D-02  0.431310D-02  0.696403D-02
     19 -0.432672D-02 -0.406545D-02 -0.426265D-04 -0.422687D-02  0.680574D-02
     20 -0.560945D-02 -0.142564D-01 -0.423021D-02  0.532093D-02 -0.371103D-02
     21 -0.103958D-02 -0.642837D-02 -0.726818D-03 -0.499820D-02  0.232301D-02
     22 -0.334678D-02 -0.164876D-02 -0.303126D-02 -0.355256D-01 -0.826397D-02
     23 -0.178817D-02  0.352732D-03 -0.953652D-02 -0.955102D-02 -0.209973D-03
     24 -0.233844D-02 -0.996070D-02 -0.352495D-01 -0.250281D-02 -0.100522D-02
     25 -0.145702D-01  0.820399D-02 -0.120501D-01 -0.587091D-04 -0.319819D-02
     26  0.507047D-02 -0.529309D-02  0.913084D-02 -0.147356D-02 -0.544767D-02
     27 -0.110965D-01  0.128912D-01 -0.110220D-01 -0.134279D-02 -0.188499D-02
                6             7             8             9            10 
      6  0.613783D-01
      7 -0.205106D-02  0.687852D-01
      8  0.137548D-02 -0.172723D-01  0.468349D-01
      9 -0.549109D-02  0.434078D-03  0.148785D-01  0.579924D-01
     10  0.943178D-02 -0.219234D-01 -0.353496D-02 -0.171715D-01  0.848218D-01
     11 -0.167642D-01 -0.536920D-02 -0.246474D-03 -0.868321D-02 -0.892113D-02
     12 -0.163386D-01 -0.174603D-01 -0.744446D-02 -0.191168D-01 -0.802183D-03
     13 -0.197975D-02 -0.132707D-02  0.499957D-02  0.357623D-03 -0.105022D-02
     14 -0.469216D-02  0.699119D-02 -0.235501D-01  0.831625D-02 -0.107136D-02
     15 -0.491561D-02  0.723599D-04  0.407708D-02 -0.687385D-02  0.495732D-04
     16  0.566808D-02 -0.111653D-02  0.280993D-02 -0.514591D-03 -0.580122D-02
     17  0.671279D-02 -0.357849D-02 -0.401732D-02  0.135088D-02  0.882457D-02
     18 -0.192882D-01 -0.401951D-02 -0.232835D-02  0.263771D-04  0.101381D-02
     19 -0.690940D-02 -0.413171D-02 -0.926571D-03 -0.176177D-04  0.364580D-03
     20  0.152984D-02  0.301343D-02 -0.630347D-02 -0.171476D-02  0.338884D-03
     21 -0.730395D-02  0.280190D-02 -0.831843D-02 -0.126571D-02 -0.114487D-02
     22  0.136156D-02 -0.107398D-02  0.720823D-03 -0.631262D-03 -0.280752D-02
     23 -0.903256D-03  0.339493D-02 -0.202490D-02 -0.803374D-03 -0.244800D-03
     24 -0.112808D-02  0.222766D-02  0.164375D-02 -0.333220D-02 -0.464997D-03
     25 -0.152608D-02  0.174034D-02 -0.932574D-04  0.485200D-02 -0.375721D-01
     26  0.912714D-03  0.215304D-02 -0.505964D-02  0.126227D-02 -0.831270D-02
     27 -0.284462D-02  0.582667D-02  0.212111D-02 -0.161521D-01  0.990119D-02
               11            12            13            14            15 
     11  0.671699D-01
     12  0.390536D-02  0.449078D-01
     13  0.191961D-02 -0.697551D-02  0.453239D-01
     14 -0.296156D-02  0.208786D-02  0.142944D-01  0.503368D-01
     15  0.419610D-03 -0.244820D-02  0.449277D-02 -0.753241D-02  0.706804D-01
     16  0.588664D-02  0.142923D-02 -0.225222D-01 -0.122178D-01 -0.155415D-01
     17 -0.402552D-01  0.136336D-01 -0.104076D-01 -0.288541D-02 -0.479204D-02
     18  0.143211D-01 -0.159503D-02 -0.173653D-01 -0.631804D-02 -0.185188D-01
     19  0.939319D-02 -0.411282D-03  0.727319D-03  0.402633D-02  0.431703D-02
     20 -0.883201D-04 -0.194554D-02  0.604012D-02 -0.118984D-01 -0.898433D-02
     21  0.474908D-03 -0.223798D-02  0.685647D-02 -0.739941D-02 -0.182592D-01
     22 -0.553330D-03  0.284439D-02  0.916814D-03 -0.491771D-03 -0.144533D-02
     23 -0.406828D-02 -0.825112D-03 -0.178574D-02  0.893458D-03  0.168350D-02
     24  0.103018D-03 -0.761123D-03  0.320616D-02 -0.994284D-03 -0.353754D-02
     25 -0.114357D-01  0.111452D-01 -0.424513D-02  0.259124D-02 -0.815079D-05
     26 -0.470667D-02  0.267955D-02 -0.841894D-03 -0.324314D-02  0.221356D-03
     27  0.593092D-02 -0.606258D-03  0.128342D-02  0.603321D-02 -0.416362D-02
               16            17            18            19            20 
     16  0.828855D-01
     17  0.708362D-02  0.608158D-01
     18 -0.320174D-02 -0.156810D-01  0.459337D-01
     19 -0.444867D-01  0.791390D-02  0.142092D-01  0.637115D-01
     20  0.824897D-02 -0.397758D-02  0.261601D-02 -0.153904D-01  0.665071D-01
     21  0.112060D-01  0.177245D-02 -0.139548D-02 -0.159529D-01 -0.102602D-02
     22 -0.251152D-02  0.999875D-03  0.147500D-02 -0.482708D-02 -0.341030D-02
     23 -0.334578D-02  0.618547D-03  0.187025D-02 -0.419063D-02 -0.182705D-01
     24 -0.134727D-03 -0.139336D-02 -0.188735D-02  0.746260D-02  0.147302D-01
     25  0.312304D-02 -0.762876D-02  0.398157D-02 -0.280427D-02  0.144778D-02
     26  0.172164D-02 -0.668688D-02  0.204364D-02 -0.356615D-02 -0.800133D-02
     27 -0.133735D-03 -0.901976D-03 -0.441364D-02 -0.265495D-02 -0.975223D-03
               21            22            23            24            25 
     21  0.429956D-01
     22  0.634382D-02  0.613116D-01
     23  0.134670D-01  0.261365D-02  0.371084D-01
     24 -0.125380D-01 -0.161063D-01  0.345943D-02  0.633817D-01
     25 -0.407264D-02 -0.121360D-01  0.148976D-01  0.865087D-02  0.665230D-01
     26  0.513484D-02  0.100338D-01 -0.143994D-01 -0.658287D-02 -0.478464D-02
     27  0.731479D-03  0.918941D-02 -0.841194D-02 -0.494791D-02 -0.109727D-01
               26            27 
     26  0.528379D-01
     27 -0.148023D-01  0.434187D-01
 Leave Link  716 at Thu Mar  8 10:05:29 2018, MaxMem=   536870912 cpu:         0.1
 (Enter /share/apps//mg09/l103.exe)

 GradGradGradGradGradGradGradGradGradGradGradGradGradGradGradGradGradGrad
 Berny optimization.
 Search for a local minimum.
 Step number   1 out of a maximum of    2
 All quantities printed in internal units (Hartrees-Bohrs-Radians)
 Second derivative matrix not updated -- analytic derivatives used.
 ITU=  0
     Eigenvalues ---    0.00420   0.01118   0.02476   0.03510   0.04169
     Eigenvalues ---    0.04920   0.05281   0.05586   0.05839   0.05957
     Eigenvalues ---    0.06570   0.07240   0.07778   0.09291   0.09434
     Eigenvalues ---    0.10087   0.11773   0.12429   0.13899   0.14233
     Eigenvalues ---    0.14943
 Angle between quadratic step and forces=  54.83 degrees.
 Linear search not attempted -- first point.
 TrRot= -0.000072  0.000127  0.000009  0.000012  0.000015  0.000012
 MatCor failed.
 Variable       Old X    -DE/DX   Delta X   Delta X   Delta X     New X
                                 (Linear)    (Quad)   (Total)
    X1       -4.01968  -0.00002   0.00000   0.00063   0.00057  -4.01911
    Y1       -1.81560  -0.00010   0.00000  -0.00621  -0.00617  -1.82177
    Z1       -1.71107   0.00000   0.00000  -0.00012  -0.00004  -1.71112
    X2        1.67429   0.00002   0.00000   0.00010   0.00007   1.67436
    Y2        0.93653  -0.00002   0.00000   0.00081   0.00097   0.93750
    Z2        4.09772  -0.00001   0.00000  -0.00026  -0.00027   4.09745
    X3        0.58209   0.00003   0.00000   0.00352   0.00348   0.58557
    Y3       -3.64188   0.00005   0.00000   0.00438   0.00452  -3.63736
    Z3       -3.31371  -0.00004   0.00000  -0.00159  -0.00159  -3.31530
    X4        4.23374   0.00002   0.00000   0.00043   0.00042   4.23416
    Y4       -2.51784   0.00001   0.00000  -0.00256  -0.00234  -2.52018
    Z4        0.44005   0.00000   0.00000   0.00337   0.00332   0.44337
    X5       -0.51798  -0.00003   0.00000  -0.00517  -0.00533  -0.52332
    Y5        1.14549   0.00002   0.00000   0.00247   0.00259   1.14808
    Z5       -4.59828   0.00007   0.00000   0.00149   0.00150  -4.59677
    X6        3.29192  -0.00002   0.00000   0.00025   0.00009   3.29201
    Y6        2.83641   0.00000   0.00000  -0.00411  -0.00391   2.83251
    Z6       -1.25761   0.00003   0.00000  -0.00195  -0.00199  -1.25960
    X7       -2.10600  -0.00002   0.00000   0.00205   0.00189  -2.10411
    Y7        3.69643   0.00006   0.00000   0.00238   0.00246   3.69889
    Z7        0.08601  -0.00002   0.00000   0.00029   0.00033   0.08634
    X8       -3.69686   0.00005   0.00000   0.00023   0.00022  -3.69664
    Y8       -0.40679  -0.00001   0.00000   0.00201   0.00205  -0.40474
    Z8        3.80479   0.00000   0.00000  -0.00175  -0.00169   3.80310
    X9       -0.55220  -0.00003   0.00000  -0.00147  -0.00141  -0.55361
    Y9       -4.24783  -0.00001   0.00000  -0.00028  -0.00017  -4.24799
    Z9        1.80008  -0.00002   0.00000   0.00042   0.00044   1.80052
         Item               Value     Threshold  Converged?
 Maximum Force            0.000099     0.000450     YES
 RMS     Force            0.000035     0.000300     YES
 Maximum Displacement     0.006172     0.001800     NO 
 RMS     Displacement     0.002486     0.001200     NO 
 Predicted change in Energy=-6.833393D-07
 GradGradGradGradGradGradGradGradGradGradGradGradGradGradGradGradGradGrad

 Leave Link  103 at Thu Mar  8 10:05:29 2018, MaxMem=   536870912 cpu:         0.1
 (Enter /share/apps//mg09/l9999.exe)
 1\1\GINC-COMPUTE-0-5\Freq\RPBE1PBE\def2TZVP\Bi4Ge3Sn2\RODRIGO\08-Mar-2
 018\0\\#P Geom=AllCheck Guess=TCheck SCRF=Check GenChk RPBE1PBE/def2TZ
 VP Freq\\01Final_coords.xyz_47\\0,1\Bi,-2.127124455,-0.9607741965,-0.9
 054600445\Sn,0.8859970718,0.4955904475,2.1684225025\Ge,0.3080277935,-1
 .927202163,-1.7535402496\Bi,2.2403989001,-1.3323832654,0.232866575\Ge,
 -0.2741056682,0.6061668404,-2.433303569\Bi,1.7420097307,1.5009647927,-
 0.6654990838\Bi,-1.1144451269,1.9560672817,0.0455147355\Sn,-1.95629352
 69,-0.2152661592,2.0134081056\Ge,-0.2922127192,-2.2478535782,0.9525600
 282\\Version=ES64L-G09RevD.01\State=1-A\HF=-7517.8137886\RMSD=3.846e-0
 9\RMSF=3.453e-05\ZeroPoint=0.0057647\Thermal=0.0232871\Dipole=0.072609
 1,0.480964,0.2896189\DipoleDeriv=0.0800599,0.0283767,0.0979768,-0.0571
 379,0.1422393,0.0438079,-0.0163287,0.0659192,-0.0834151,0.0273894,0.00
 48081,0.1406076,0.0128387,0.069137,0.0441688,0.1139806,0.0251256,0.181
 6473,-0.0778573,0.0550277,-0.0451331,0.0530465,-0.0369335,0.1678474,-0
 .0081007,0.0252219,-0.1178036,0.0523549,-0.1188408,-0.0183257,-0.10280
 95,-0.0463433,-0.0770474,0.0447729,-0.1027693,-0.0866858,-0.1420736,-0
 .0162132,0.1072385,-0.0070744,-0.1545783,-0.1778044,-0.0100223,-0.0343
 877,0.0500153,-0.0412882,0.0492288,-0.1211165,0.0405438,0.0657947,0.02
 03568,-0.0220087,0.0887772,-0.0890241,0.0410306,-0.0516007,0.0599025,0
 .0529523,0.0027507,-0.0147835,0.0652619,-0.0229697,-0.0116856,0.18385,
 0.0043975,-0.3072759,-0.0016166,-0.0703115,-0.0196804,-0.2620673,-0.03
 27573,0.1748527,-0.1234656,0.0448158,0.0861258,0.0092572,0.0282448,0.0
 131348,0.0945122,-0.0121598,-0.0179011\Polar=388.7169587,1.560464,364.
 2099518,-8.0896439,3.363801,382.0505073\PG=C01 [X(Bi4Ge3Sn2)]\NImag=0\
 \0.09168759,0.00427271,0.04003115,-0.00066088,0.00182161,0.06948261,-0
 .00094925,-0.00200790,-0.00691751,0.05664418,0.00040208,-0.00458848,-0
 .00127126,0.00031662,0.02849109,-0.00123391,-0.00054647,-0.00406821,-0
 .00276122,0.01237530,0.06137833,-0.04183212,0.01660206,0.01216817,0.00
 087929,-0.00593465,-0.00205106,0.06878519,0.01423237,-0.00280987,-0.00
 600465,-0.00093558,-0.00282316,0.00137548,-0.01727231,0.04683491,0.009
 32915,-0.00929448,-0.00578704,0.00336210,-0.00531204,-0.00549109,0.000
 43408,0.01487846,0.05799243,-0.00513931,0.00116751,-0.00081282,-0.0108
 9263,0.01175399,0.00943178,-0.02192341,-0.00353496,-0.01717148,0.08482
 180,-0.00195066,-0.00217870,0.00029256,0.01103060,-0.01266463,-0.01676
 423,-0.00536920,-0.00024647,-0.00868321,-0.00892113,0.06716988,-0.0003
 5015,0.00338286,-0.00180387,0.01058054,-0.01547409,-0.01633856,-0.0174
 6027,-0.00744446,-0.01911680,-0.00080218,0.00390536,0.04490781,-0.0160
 0865,-0.01809645,0.01012407,-0.00181475,0.00387791,-0.00197975,-0.0013
 2707,0.00499957,0.00035762,-0.00105022,0.00191961,-0.00697551,0.045323
 92,-0.01583389,-0.00755576,0.01049898,0.00171162,0.00086416,-0.0046921
 6,0.00699119,-0.02355007,0.00831625,-0.00107136,-0.00296156,0.00208786
 ,0.01429443,0.05033676,0.00779646,0.01162197,-0.01196367,0.00026679,0.
 00328526,-0.00491561,0.00007236,0.00407708,-0.00687385,0.00004957,0.00
 041961,-0.00244820,0.00449277,-0.00753241,0.07068041,-0.00551455,-0.00
 442771,0.00122296,-0.00405571,-0.00575952,0.00566808,-0.00111653,0.002
 80993,-0.00051459,-0.00580122,0.00588664,0.00142923,-0.02252223,-0.012
 21780,-0.01554151,0.08288547,0.00120456,-0.00370161,-0.00070135,-0.004
 41172,0.00008969,0.00671279,-0.00357849,-0.00401732,0.00135088,0.00882
 457,-0.04025525,0.01363358,-0.01040755,-0.00288541,-0.00479204,0.00708
 362,0.06081579,-0.00040614,-0.00348764,0.00113843,0.00431310,0.0069640
 3,-0.01928820,-0.00401951,-0.00232835,0.00002638,0.00101381,0.01432107
 ,-0.00159503,-0.01736525,-0.00631804,-0.01851876,-0.00320174,-0.015680
 97,0.04593365,-0.00432672,-0.00406545,-0.00004263,-0.00422687,0.006805
 74,-0.00690940,-0.00413171,-0.00092657,-0.00001762,0.00036458,0.009393
 19,-0.00041128,0.00072732,0.00402633,0.00431703,-0.04448675,0.00791390
 ,0.01420917,0.06371149,-0.00560945,-0.01425637,-0.00423021,0.00532093,
 -0.00371103,0.00152984,0.00301343,-0.00630347,-0.00171476,0.00033888,-
 0.00008832,-0.00194554,0.00604012,-0.01189844,-0.00898433,0.00824897,-
 0.00397758,0.00261601,-0.01539036,0.06650707,-0.00103958,-0.00642837,-
 0.00072682,-0.00499820,0.00232301,-0.00730395,0.00280190,-0.00831843,-
 0.00126571,-0.00114487,0.00047491,-0.00223798,0.00685647,-0.00739941,-
 0.01825916,0.01120603,0.00177245,-0.00139548,-0.01595293,-0.00102602,0
 .04299564,-0.00334678,-0.00164876,-0.00303126,-0.03552556,-0.00826397,
 0.00136156,-0.00107398,0.00072082,-0.00063126,-0.00280752,-0.00055333,
 0.00284439,0.00091681,-0.00049177,-0.00144533,-0.00251152,0.00099987,0
 .00147500,-0.00482708,-0.00341030,0.00634382,0.06131162,-0.00178817,0.
 00035273,-0.00953652,-0.00955102,-0.00020997,-0.00090326,0.00339493,-0
 .00202490,-0.00080337,-0.00024480,-0.00406828,-0.00082511,-0.00178574,
 0.00089346,0.00168350,-0.00334578,0.00061855,0.00187025,-0.00419063,-0
 .01827054,0.01346702,0.00261365,0.03710839,-0.00233844,-0.00996070,-0.
 03524948,-0.00250281,-0.00100522,-0.00112808,0.00222766,0.00164375,-0.
 00333220,-0.00046500,0.00010302,-0.00076112,0.00320616,-0.00099428,-0.
 00353754,-0.00013473,-0.00139336,-0.00188735,0.00746260,0.01473024,-0.
 01253802,-0.01610632,0.00345943,0.06338170,-0.01457021,0.00820399,-0.0
 1205011,-0.00005871,-0.00319819,-0.00152608,0.00174034,-0.00009326,0.0
 0485200,-0.03757208,-0.01143573,0.01114523,-0.00424513,0.00259124,-0.0
 0000815,0.00312304,-0.00762876,0.00398157,-0.00280427,0.00144778,-0.00
 407264,-0.01213599,0.01489756,0.00865087,0.06652301,0.00507047,-0.0052
 9309,0.00913084,-0.00147356,-0.00544767,0.00091271,0.00215304,-0.00505
 964,0.00126227,-0.00831270,-0.00470667,0.00267955,-0.00084189,-0.00324
 314,0.00022136,0.00172164,-0.00668688,0.00204364,-0.00356615,-0.008001
 33,0.00513484,0.01003378,-0.01439944,-0.00658287,-0.00478464,0.0528378
 7,-0.01109651,0.01289122,-0.01102196,-0.00134279,-0.00188499,-0.002844
 62,0.00582667,0.00212111,-0.01615212,0.00990119,0.00593092,-0.00060626
 ,0.00128342,0.00603321,-0.00416362,-0.00013373,-0.00090198,-0.00441364
 ,-0.00265495,-0.00097522,0.00073148,0.00918941,-0.00841194,-0.00494791
 ,-0.01097269,-0.01480233,0.04341865\\0.00002190,0.00009891,0.00000110,
 -0.00001904,0.00001631,0.00000980,-0.00003231,-0.00005473,0.00003893,-
 0.00002047,-0.00000594,0.00000259,0.00002847,-0.00001750,-0.00007033,0
 .00002002,-0.00000418,-0.00002700,0.00001789,-0.00005587,0.00002385,-0
 .00004826,0.00001092,0.00000210,0.00003180,0.00001207,0.00001898\\\@


 IT'S WHAT A FELLER THINKS HE KNOWS THAT HURTS HIM...
                    ------
           KIN HUBBARD
 Job cpu time:       0 days  3 hours 45 minutes 55.5 seconds.
 File lengths (MBytes):  RWF=    299 Int=      0 D2E=      0 Chk=     16 Scr=      1
 Normal termination of Gaussian 09 at Thu Mar  8 10:05:31 2018.
