 Entering Gaussian System, Link 0=/share/apps/mg09/g09
 Initial command:
 /share/apps//mg09/l1.exe "/state/partition1/gauss_tmp/Gau-6137.inp" -scrdir="/state/partition1/gauss_tmp/"
 Entering Link 1 = /share/apps//mg09/l1.exe PID=      6158.
  
 Copyright (c) 1988,1990,1992,1993,1995,1998,2003,2009,2013,
            Gaussian, Inc.  All Rights Reserved.
  
 This is part of the Gaussian(R) 09 program.  It is based on
 the Gaussian(R) 03 system (copyright 2003, Gaussian, Inc.),
 the Gaussian(R) 98 system (copyright 1998, Gaussian, Inc.),
 the Gaussian(R) 94 system (copyright 1995, Gaussian, Inc.),
 the Gaussian 92(TM) system (copyright 1992, Gaussian, Inc.),
 the Gaussian 90(TM) system (copyright 1990, Gaussian, Inc.),
 the Gaussian 88(TM) system (copyright 1988, Gaussian, Inc.),
 the Gaussian 86(TM) system (copyright 1986, Carnegie Mellon
 University), and the Gaussian 82(TM) system (copyright 1983,
 Carnegie Mellon University). Gaussian is a federally registered
 trademark of Gaussian, Inc.
  
 This software contains proprietary and confidential information,
 including trade secrets, belonging to Gaussian, Inc.
  
 This software is provided under written license and may be
 used, copied, transmitted, or stored only in accord with that
 written license.
  
 The following legend is applicable only to US Government
 contracts under FAR:
  
                    RESTRICTED RIGHTS LEGEND
  
 Use, reproduction and disclosure by the US Government is
 subject to restrictions as set forth in subparagraphs (a)
 and (c) of the Commercial Computer Software - Restricted
 Rights clause in FAR 52.227-19.
  
 Gaussian, Inc.
 340 Quinnipiac St., Bldg. 40, Wallingford CT 06492
  
  
 ---------------------------------------------------------------
 Warning -- This program may not be used in any manner that
 competes with the business of Gaussian, Inc. or will provide
 assistance to any competitor of Gaussian, Inc.  The licensee
 of this program is prohibited from giving any competitor of
 Gaussian, Inc. access to this program.  By using this program,
 the user acknowledges that Gaussian, Inc. is engaged in the
 business of creating and licensing software in the field of
 computational chemistry and represents and warrants to the
 licensee that it is not a competitor of Gaussian, Inc. and that
 it will not use this program in any manner prohibited above.
 ---------------------------------------------------------------
  

 Cite this work as:
 Gaussian 09, Revision D.01,
 M. J. Frisch, G. W. Trucks, H. B. Schlegel, G. E. Scuseria, 
 M. A. Robb, J. R. Cheeseman, G. Scalmani, V. Barone, B. Mennucci, 
 G. A. Petersson, H. Nakatsuji, M. Caricato, X. Li, H. P. Hratchian, 
 A. F. Izmaylov, J. Bloino, G. Zheng, J. L. Sonnenberg, M. Hada, 
 M. Ehara, K. Toyota, R. Fukuda, J. Hasegawa, M. Ishida, T. Nakajima, 
 Y. Honda, O. Kitao, H. Nakai, T. Vreven, J. A. Montgomery, Jr., 
 J. E. Peralta, F. Ogliaro, M. Bearpark, J. J. Heyd, E. Brothers, 
 K. N. Kudin, V. N. Staroverov, T. Keith, R. Kobayashi, J. Normand, 
 K. Raghavachari, A. Rendell, J. C. Burant, S. S. Iyengar, J. Tomasi, 
 M. Cossi, N. Rega, J. M. Millam, M. Klene, J. E. Knox, J. B. Cross, 
 V. Bakken, C. Adamo, J. Jaramillo, R. Gomperts, R. E. Stratmann, 
 O. Yazyev, A. J. Austin, R. Cammi, C. Pomelli, J. W. Ochterski, 
 R. L. Martin, K. Morokuma, V. G. Zakrzewski, G. A. Voth, 
 P. Salvador, J. J. Dannenberg, S. Dapprich, A. D. Daniels, 
 O. Farkas, J. B. Foresman, J. V. Ortiz, J. Cioslowski, 
 and D. J. Fox, Gaussian, Inc., Wallingford CT, 2013.
 
 ******************************************
 Gaussian 09:  ES64L-G09RevD.01 24-Apr-2013
                 6-Mar-2018 
 ******************************************
 %NProcShared=4
 Will use up to    4 processors via shared memory.
 %LindaWorkers=compute-0-11
 %chk=Isomer_06.chk
 %NProc=4
 Will use up to    4 processors via shared memory.
 %mem=4GB
 SetLPE:  input flags=" -vv -opt "Tsnet.Node.lindarsharg: ssh" "
 SetLPE:    new flags=" -vv -opt "Tsnet.Node.lindarsharg: ssh"  -nodelist 'compute-0-11.local'"
 Will use up to    1 processors via Linda.
 ----------------------------------------------------------------------
 #p PBE1PBE/Def2TZVP scf=(maxcycle=768) opt=(cartesian,maxcycle=512) fr
 eq
 ----------------------------------------------------------------------
 1/6=512,10=7,14=-1,18=10,26=3,38=1/1,3;
 2/12=2,17=6,18=5,29=2,40=1/2;
 3/5=44,7=101,11=2,16=1,25=1,30=1,71=1,74=-13/1,2,3;
 4//1;
 5/5=2,7=768,38=5/2;
 6/7=2,8=2,9=2,10=2,28=1/1;
 7/7=1,29=1/1,2,3,16;
 1/6=512,10=7,14=-1,18=10,26=3/3(2);
 2/29=1/2;
 99/12=1/99;
 2/29=1/2;
 3/5=44,7=101,11=2,16=1,25=1,30=1,71=1,74=-13/1,2,3;
 4/5=5,16=3,69=1/1;
 5/5=2,7=768,38=5/2;
 7/7=1/1,2,3,16;
 1/6=512,14=-1,18=10,26=3/3(-5);
 2/29=1/2;
 6/7=2,8=2,9=2,10=2,19=2,28=1/1;
 99/9=1,12=1/99;
 Leave Link    1 at Tue Mar  6 11:56:29 2018, MaxMem=   536870912 cpu:         0.7
 (Enter /share/apps//mg09/l101.exe)
 ---------------------
 01Final_coords.xyz_06
 ---------------------
 Symbolic Z-matrix:
 Charge =  0 Multiplicity = 1
 83                    2.35492  -0.73289   0.01778 
 83                   -2.24551  -1.26937  -0.3008 
 32                    0.07371  -2.47611   0.93188 
 32                   -1.37045  -0.16477   2.24225 
 32                    1.23064  -0.71728   2.67509 
 83                   -1.68478   1.71638  -0.01359 
 83                    0.87047   1.39524  -1.62962 
 50                    0.24619  -1.6074   -2.04051 
 50                    0.96624   1.91509   1.49456 
 
 NAtoms=      9 NQM=        9 NQMF=       0 NMMI=      0 NMMIF=      0
                NMic=       0 NMicF=      0.
                    Isotopes and Nuclear Properties:
 (Nuclear quadrupole moments (NQMom) in fm**2, nuclear magnetic moments (NMagM)
  in nuclear magnetons)

  Atom         1           2           3           4           5           6           7           8           9
 IAtWgt=         209         209          74          74          74         209         209         118         118
 AtmWgt= 208.9804000 208.9804000  73.9211788  73.9211788  73.9211788 208.9804000 208.9804000 117.9018000 117.9018000
 NucSpn=           9           9           0           0           0           9           9           0           0
 AtZEff=   0.0000000   0.0000000   0.0000000   0.0000000   0.0000000   0.0000000   0.0000000   0.0000000   0.0000000
 NQMom=  -51.6000000 -51.6000000   0.0000000   0.0000000   0.0000000 -51.6000000 -51.6000000   0.0000000   0.0000000
 NMagM=    4.1106000   4.1106000   0.0000000   0.0000000   0.0000000   4.1106000   4.1106000   0.0000000   0.0000000
 AtZNuc=  83.0000000  83.0000000  32.0000000  32.0000000  32.0000000  83.0000000  83.0000000  50.0000000  50.0000000
 Leave Link  101 at Tue Mar  6 11:56:40 2018, MaxMem=   536870912 cpu:         0.4
 (Enter /share/apps//mg09/l103.exe)

 GradGradGradGradGradGradGradGradGradGradGradGradGradGradGradGradGradGrad
 Berny optimization.
 Initialization pass.
 No Z-matrix variables, so optimization will use Cartesian coordinates.
 Trust Radius=3.00D-01 FncErr=1.00D-07 GrdErr=1.00D-06
 Number of steps in this run=    100 maximum allowed number of steps=    100.
 GradGradGradGradGradGradGradGradGradGradGradGradGradGradGradGradGradGrad

 Leave Link  103 at Tue Mar  6 11:56:55 2018, MaxMem=   536870912 cpu:         0.1
 (Enter /share/apps//mg09/l202.exe)
 ---------------------------------------------------------------------------------------------------
                            Z-MATRIX (ANGSTROMS AND DEGREES)
   CD    Cent   Atom    N1       Length/X        N2       Alpha/Y        N3        Beta/Z          J
 ---------------------------------------------------------------------------------------------------
      1      1  Bi       0   2.354921         -0.732893          0.017783
      2      2  Bi       0  -2.245513         -1.269372         -0.300804
      3      3  Ge       0   0.073706         -2.476107          0.931878
      4      4  Ge       0  -1.370445         -0.164774          2.242250
      5      5  Ge       0   1.230638         -0.717275          2.675091
      6      6  Bi       0  -1.684779          1.716375         -0.013592
      7      7  Bi       0   0.870473          1.395243         -1.629624
      8      8  Sn       0   0.246193         -1.607397         -2.040508
      9      9  Sn       0   0.966241          1.915089          1.494562
 ---------------------------------------------------------------------------------------------------
                         Z-Matrix orientation:                         
 ---------------------------------------------------------------------
 Center     Atomic      Atomic             Coordinates (Angstroms)
 Number     Number       Type             X           Y           Z
 ---------------------------------------------------------------------
      1         83           0        2.354921   -0.732893    0.017783
      2         83           0       -2.245513   -1.269372   -0.300804
      3         32           0        0.073706   -2.476107    0.931878
      4         32           0       -1.370445   -0.164774    2.242250
      5         32           0        1.230638   -0.717275    2.675091
      6         83           0       -1.684779    1.716375   -0.013592
      7         83           0        0.870473    1.395243   -1.629624
      8         50           0        0.246193   -1.607397   -2.040508
      9         50           0        0.966241    1.915089    1.494562
 ---------------------------------------------------------------------
                    Distance matrix (angstroms):
                    1          2          3          4          5
     1  Bi   0.000000
     2  Bi   4.642553   0.000000
     3  Ge   3.013023   2.890414   0.000000
     4  Ge   4.375999   2.907405   3.024055   0.000000
     5  Ge   2.885402   4.609163   2.733272   2.694112   0.000000
     6  Bi   4.724307   3.051491   4.643607   2.954040   4.653098
     7  Bi   3.073516   4.309908   4.709934   4.737803   4.808640
     8  Sn   3.073769   3.057684   3.101530   4.799656   4.898808
     9  Sn   3.334834   4.866158   4.516175   3.216360   2.897049
                    6          7          8          9
     6  Bi   0.000000
     7  Bi   3.040394   0.000000
     8  Sn   4.345630   3.094252   0.000000
     9  Sn   3.056456   3.168588   5.042132   0.000000
 Stoichiometry    Bi4Ge3Sn2
 Framework group  C1[X(Bi4Ge3Sn2)]
 Deg. of freedom    21
 Full point group                 C1      NOp   1
 Largest Abelian subgroup         C1      NOp   1
 Largest concise Abelian subgroup C1      NOp   1
                         Standard orientation:                         
 ---------------------------------------------------------------------
 Center     Atomic      Atomic             Coordinates (Angstroms)
 Number     Number       Type             X           Y           Z
 ---------------------------------------------------------------------
      1         83           0        2.354921   -0.732895    0.017783
      2         83           0       -2.245514   -1.269370   -0.300804
      3         32           0        0.073704   -2.476107    0.931878
      4         32           0       -1.370445   -0.164773    2.242250
      5         32           0        1.230638   -0.717276    2.675091
      6         83           0       -1.684777    1.716377   -0.013592
      7         83           0        0.870474    1.395242   -1.629624
      8         50           0        0.246192   -1.607397   -2.040508
      9         50           0        0.966243    1.915088    1.494562
 ---------------------------------------------------------------------
 Rotational constants (GHZ):      0.1012080      0.0898613      0.0837430
 Leave Link  202 at Tue Mar  6 11:56:57 2018, MaxMem=   536870912 cpu:         0.0
 (Enter /share/apps//mg09/l301.exe)
 Standard basis: def2TZVP (5D, 7F)
 Ernie: Thresh=  0.10000D-02 Tol=  0.10000D-05 Strict=F.
 There are   519 symmetry adapted cartesian basis functions of A   symmetry.
 There are   444 symmetry adapted basis functions of A   symmetry.
   444 basis functions,   963 primitive gaussians,   519 cartesian basis functions
   116 alpha electrons      116 beta electrons
       nuclear repulsion energy      3571.4865557724 Hartrees.
 IExCor= 1009 DFT=T Ex+Corr=PBE1PBE ExCW=0 ScaHFX=  0.250000
 ScaDFX=  0.750000  0.750000  1.000000  1.000000 ScalE2=  1.000000  1.000000
 IRadAn=      0 IRanWt=     -1 IRanGd=            0 ICorTp=0 IEmpDi=  4
 NAtoms=    9 NActive=    9 NUniq=    9 SFac= 1.00D+00 NAtFMM=   60 NAOKFM=F Big=F
 Integral buffers will be    131072 words long.
 Raffenetti 2 integral format.
 Two-electron integral symmetry is turned on.
 Leave Link  301 at Tue Mar  6 11:57:11 2018, MaxMem=   536870912 cpu:         0.3
 (Enter /share/apps//mg09/l302.exe)
 NPDir=0 NMtPBC=     1 NCelOv=     1 NCel=       1 NClECP=     1 NCelD=      1
         NCelK=      1 NCelE2=     1 NClLst=     1 CellRange=     0.0.
 One-electron integrals computed using PRISM.
   1 Symmetry operations used in ECPInt.
 ECPInt:  NShTT=   10440 NPrTT=   41973 LenC2=    9696 LenP2D=   27421.
 LDataN:  DoStor=T MaxTD1= 8 Len=  415
 NBasis=   444 RedAO= T EigKep=  1.48D-03  NBF=   444
 NBsUse=   444 1.00D-06 EigRej= -1.00D+00 NBFU=   444
 Precomputing XC quadrature grid using
 IXCGrd= 4 IRadAn=           0 IRanWt=          -1 IRanGd=           0 AccXCQ= 0.00D+00.
 Defaulting to unpruned grid for atomic number  83.
 Defaulting to unpruned grid for atomic number  83.
 Defaulting to unpruned grid for atomic number  83.
 Generated NRdTot=       0 NPtTot=           0 NUsed=           0 NTot=          32
 NSgBfM=   498   498   498   498   500 MxSgAt=     9 MxSgA2=     9.
 Leave Link  302 at Tue Mar  6 11:57:31 2018, MaxMem=   536870912 cpu:        38.8
 (Enter /share/apps//mg09/l303.exe)
 DipDrv:  MaxL=1.
 Leave Link  303 at Tue Mar  6 11:57:46 2018, MaxMem=   536870912 cpu:         0.3
 (Enter /share/apps//mg09/l401.exe)
 ExpMin= 4.62D-02 ExpMax= 4.66D+05 ExpMxC= 4.50D+03 IAcc=2 IRadAn=         4 AccDes= 0.00D+00
 Harris functional with IExCor= 1009 and IRadAn=       4 diagonalized for initial guess.
 HarFok:  IExCor= 1009 AccDes= 0.00D+00 IRadAn=         4 IDoV= 1 UseB2=F ITyADJ=14
 ICtDFT=  3500011 ScaDFX=  1.000000  1.000000  1.000000  1.000000
 Defaulting to unpruned grid for atomic number  83.
 Defaulting to unpruned grid for atomic number  83.
 Defaulting to unpruned grid for atomic number  83.
 Defaulting to unpruned grid for atomic number  83.
 FoFCou: FMM=F IPFlag=           0 FMFlag=      100000 FMFlg1=           0
         NFxFlg=           0 DoJE=T BraDBF=F KetDBF=T FulRan=T
         wScrn=  0.000000 ICntrl=     500 IOpCl=  0 I1Cent=   200000004 NGrid=           0
         NMat0=    1 NMatS0=      1 NMatT0=    0 NMatD0=    1 NMtDS0=    0 NMtDT0=    0
 Petite list used in FoFCou.
 Harris En= -7518.61753802341    
 JPrj=0 DoOrth=F DoCkMO=F.
 Leave Link  401 at Tue Mar  6 11:57:58 2018, MaxMem=   536870912 cpu:        16.0
 (Enter /share/apps//mg09/l502.exe)
 Closed shell SCF:
 Using DIIS extrapolation, IDIIS=  1040.
 Integral symmetry usage will be decided dynamically.
 IVT=     1410107 IEndB=     1410107 NGot=   536870912 MDV=   536322046
 LenX=   536322046 LenY=   536052166
 Requested convergence on RMS density matrix=1.00D-08 within 768 cycles.
 Requested convergence on MAX density matrix=1.00D-06.
 Requested convergence on             energy=1.00D-06.
 No special actions if energy rises.
 Fock matrices will be formed incrementally for  20 cycles.

 Cycle   1  Pass 1  IDiag  1:
 FoFJK:  IHMeth= 1 ICntrl=       0 DoSepK=F KAlg= 0 I1Cent=   0 FoldK=F
 IRaf= 880000000 NMat=   1 IRICut=       1 DoRegI=T DoRafI=F ISym2E= 0.
 FoFCou: FMM=F IPFlag=           0 FMFlag=      100000 FMFlg1=           0
         NFxFlg=           0 DoJE=F BraDBF=F KetDBF=F FulRan=T
         wScrn=  0.000000 ICntrl=       0 IOpCl=  0 I1Cent=           0 NGrid=           0
         NMat0=    1 NMatS0=      1 NMatT0=    0 NMatD0=    1 NMtDS0=    0 NMtDT0=    0
 Symmetry not used in FoFCou.
 Defaulting to unpruned grid for atomic number  83.
 Defaulting to unpruned grid for atomic number  83.
 Defaulting to unpruned grid for atomic number  83.
 Defaulting to unpruned grid for atomic number  83.
 E= -7517.22421802097    
 DIIS: error= 2.70D-02 at cycle   1 NSaved=   1.
 NSaved= 1 IEnMin= 1 EnMin= -7517.22421802097     IErMin= 1 ErrMin= 2.70D-02
 ErrMax= 2.70D-02  0.00D+00 EMaxC= 1.00D-01 BMatC= 1.48D+00 BMatP= 1.48D+00
 IDIUse=3 WtCom= 7.30D-01 WtEn= 2.70D-01
 Coeff-Com:  0.100D+01
 Coeff-En:   0.100D+01
 Coeff:      0.100D+01
 Gap=     0.119 Goal=   None    Shift=    0.000
 GapD=    0.119 DampG=1.000 DampE=0.500 DampFc=0.5000 IDamp=-1.
 Damping current iteration by 5.00D-01
 RMSDP=5.60D-03 MaxDP=2.51D-01              OVMax= 7.79D-01

 Cycle   2  Pass 1  IDiag  1:
 RMSU=  2.79D-03    CP:  1.01D+00
 E= -7516.98226245126     Delta-E=        0.241955569705 Rises=F Damp=T
 DIIS: error= 1.39D-02 at cycle   2 NSaved=   2.
 NSaved= 2 IEnMin= 1 EnMin= -7517.22421802097     IErMin= 2 ErrMin= 1.39D-02
 ErrMax= 1.39D-02  0.00D+00 EMaxC= 1.00D-01 BMatC= 3.27D-01 BMatP= 1.48D+00
 IDIUse=3 WtCom= 8.61D-01 WtEn= 1.39D-01
 Coeff-Com:  0.173D+00 0.827D+00
 Coeff-En:   0.617D+00 0.383D+00
 Coeff:      0.235D+00 0.765D+00
 Gap=     0.078 Goal=   None    Shift=    0.000
 RMSDP=4.22D-03 MaxDP=1.53D-01 DE= 2.42D-01 OVMax= 7.00D-01

 Cycle   3  Pass 1  IDiag  1:
 RMSU=  3.39D-03    CP:  1.00D+00  1.02D-01
 E= -7515.12363325327     Delta-E=        1.858629197992 Rises=F Damp=F
 DIIS: error= 6.24D-02 at cycle   3 NSaved=   3.
 NSaved= 3 IEnMin= 1 EnMin= -7517.22421802097     IErMin= 2 ErrMin= 1.39D-02
 ErrMax= 6.24D-02  0.00D+00 EMaxC= 1.00D-01 BMatC= 2.10D+00 BMatP= 3.27D-01
 IDIUse=2 WtCom= 0.00D+00 WtEn= 1.00D+00
 EnCoef did    10 forward-backward iterations
 Coeff-En:   0.578D+00 0.399D+00 0.232D-01
 Coeff:      0.578D+00 0.399D+00 0.232D-01
 Gap=     0.150 Goal=   None    Shift=    0.000
 RMSDP=3.57D-03 MaxDP=1.42D-01 DE= 1.86D+00 OVMax= 4.32D-01

 Cycle   4  Pass 1  IDiag  1:
 RMSU=  1.66D-03    CP:  1.01D+00  8.09D-01  2.73D-01
 E= -7517.66620234745     Delta-E=       -2.542569094181 Rises=F Damp=F
 DIIS: error= 1.07D-02 at cycle   4 NSaved=   4.
 NSaved= 4 IEnMin= 4 EnMin= -7517.66620234745     IErMin= 4 ErrMin= 1.07D-02
 ErrMax= 1.07D-02  0.00D+00 EMaxC= 1.00D-01 BMatC= 3.55D-01 BMatP= 3.27D-01
 IDIUse=3 WtCom= 8.93D-01 WtEn= 1.07D-01
 Coeff-Com:  0.317D+00 0.376D-01-0.423D-01 0.688D+00
 Coeff-En:   0.169D+00 0.000D+00 0.000D+00 0.831D+00
 Coeff:      0.301D+00 0.336D-01-0.378D-01 0.703D+00
 Gap=     0.123 Goal=   None    Shift=    0.000
 RMSDP=1.47D-03 MaxDP=6.98D-02 DE=-2.54D+00 OVMax= 1.21D-01

 Cycle   5  Pass 1  IDiag  1:
 RMSU=  7.67D-04    CP:  1.01D+00  5.80D-01  2.38D-02  5.95D-01
 E= -7517.75654454039     Delta-E=       -0.090342192936 Rises=F Damp=F
 DIIS: error= 7.39D-03 at cycle   5 NSaved=   5.
 NSaved= 5 IEnMin= 5 EnMin= -7517.75654454039     IErMin= 5 ErrMin= 7.39D-03
 ErrMax= 7.39D-03  0.00D+00 EMaxC= 1.00D-01 BMatC= 7.29D-02 BMatP= 3.27D-01
 IDIUse=3 WtCom= 9.26D-01 WtEn= 7.39D-02
 Coeff-Com:  0.150D+00-0.522D-01-0.113D-01 0.426D+00 0.488D+00
 Coeff-En:   0.000D+00 0.000D+00 0.000D+00 0.290D+00 0.710D+00
 Coeff:      0.139D+00-0.484D-01-0.105D-01 0.416D+00 0.504D+00
 Gap=     0.128 Goal=   None    Shift=    0.000
 RMSDP=8.20D-04 MaxDP=4.40D-02 DE=-9.03D-02 OVMax= 8.37D-02

 Cycle   6  Pass 1  IDiag  1:
 RMSU=  4.04D-04    CP:  1.00D+00  5.46D-01  1.29D-01  7.15D-01  2.76D-01
 E= -7517.80985220325     Delta-E=       -0.053307662864 Rises=F Damp=F
 DIIS: error= 3.48D-03 at cycle   6 NSaved=   6.
 NSaved= 6 IEnMin= 6 EnMin= -7517.80985220325     IErMin= 6 ErrMin= 3.48D-03
 ErrMax= 3.48D-03  0.00D+00 EMaxC= 1.00D-01 BMatC= 1.38D-02 BMatP= 7.29D-02
 IDIUse=3 WtCom= 9.65D-01 WtEn= 3.48D-02
 Coeff-Com:  0.329D-01-0.403D-01 0.574D-03 0.155D+00 0.349D+00 0.503D+00
 Coeff-En:   0.000D+00 0.000D+00 0.000D+00 0.000D+00 0.197D+00 0.803D+00
 Coeff:      0.317D-01-0.389D-01 0.554D-03 0.150D+00 0.343D+00 0.514D+00
 Gap=     0.124 Goal=   None    Shift=    0.000
 RMSDP=3.13D-04 MaxDP=1.47D-02 DE=-5.33D-02 OVMax= 3.16D-02

 Cycle   7  Pass 1  IDiag  1:
 RMSU=  1.41D-04    CP:  1.00D+00  5.59D-01  9.80D-02  6.88D-01  4.97D-01
                    CP:  5.60D-01
 E= -7517.81930017115     Delta-E=       -0.009447967899 Rises=F Damp=F
 DIIS: error= 1.08D-03 at cycle   7 NSaved=   7.
 NSaved= 7 IEnMin= 7 EnMin= -7517.81930017115     IErMin= 7 ErrMin= 1.08D-03
 ErrMax= 1.08D-03  0.00D+00 EMaxC= 1.00D-01 BMatC= 1.43D-03 BMatP= 1.38D-02
 IDIUse=3 WtCom= 9.89D-01 WtEn= 1.08D-02
 Coeff-Com:  0.170D-01-0.285D-01 0.110D-02 0.820D-01 0.194D+00 0.341D+00
 Coeff-Com:  0.394D+00
 Coeff-En:   0.000D+00 0.000D+00 0.000D+00 0.000D+00 0.000D+00 0.155D+00
 Coeff-En:   0.845D+00
 Coeff:      0.168D-01-0.282D-01 0.109D-02 0.811D-01 0.192D+00 0.339D+00
 Coeff:      0.398D+00
 Gap=     0.125 Goal=   None    Shift=    0.000
 RMSDP=1.44D-04 MaxDP=6.42D-03 DE=-9.45D-03 OVMax= 1.68D-02

 Cycle   8  Pass 1  IDiag  1:
 RMSU=  6.74D-05    CP:  1.00D+00  5.57D-01  1.05D-01  6.94D-01  4.85D-01
                    CP:  6.40D-01  1.47D-01
 E= -7517.82053538270     Delta-E=       -0.001235211545 Rises=F Damp=F
 DIIS: error= 6.86D-04 at cycle   8 NSaved=   8.
 NSaved= 8 IEnMin= 8 EnMin= -7517.82053538270     IErMin= 8 ErrMin= 6.86D-04
 ErrMax= 6.86D-04  0.00D+00 EMaxC= 1.00D-01 BMatC= 4.97D-04 BMatP= 1.43D-03
 IDIUse=3 WtCom= 9.93D-01 WtEn= 6.86D-03
 Coeff-Com:  0.852D-02-0.168D-01 0.118D-02 0.348D-01 0.768D-01 0.168D+00
 Coeff-Com:  0.345D+00 0.383D+00
 Coeff-En:   0.000D+00 0.000D+00 0.000D+00 0.000D+00 0.000D+00 0.000D+00
 Coeff-En:   0.296D+00 0.704D+00
 Coeff:      0.847D-02-0.167D-01 0.117D-02 0.346D-01 0.763D-01 0.167D+00
 Coeff:      0.345D+00 0.385D+00
 Gap=     0.124 Goal=   None    Shift=    0.000
 RMSDP=6.08D-05 MaxDP=2.45D-03 DE=-1.24D-03 OVMax= 6.70D-03

 Cycle   9  Pass 1  IDiag  1:
 RMSU=  2.12D-05    CP:  1.00D+00  5.55D-01  1.09D-01  6.97D-01  4.81D-01
                    CP:  6.17D-01  4.47D-01  4.96D-01
 E= -7517.82119462574     Delta-E=       -0.000659243044 Rises=F Damp=F
 DIIS: error= 9.97D-05 at cycle   9 NSaved=   9.
 NSaved= 9 IEnMin= 9 EnMin= -7517.82119462574     IErMin= 9 ErrMin= 9.97D-05
 ErrMax= 9.97D-05  0.00D+00 EMaxC= 1.00D-01 BMatC= 1.05D-05 BMatP= 4.97D-04
 IDIUse=1 WtCom= 1.00D+00 WtEn= 0.00D+00
 Coeff-Com:  0.233D-02-0.493D-02 0.530D-03 0.560D-02 0.693D-02 0.277D-01
 Coeff-Com:  0.842D-01 0.138D+00 0.739D+00
 Coeff:      0.233D-02-0.493D-02 0.530D-03 0.560D-02 0.693D-02 0.277D-01
 Coeff:      0.842D-01 0.138D+00 0.739D+00
 Gap=     0.124 Goal=   None    Shift=    0.000
 RMSDP=1.17D-05 MaxDP=7.97D-04 DE=-6.59D-04 OVMax= 1.22D-03

 Cycle  10  Pass 1  IDiag  1:
 RMSU=  8.77D-06    CP:  1.00D+00  5.54D-01  1.09D-01  6.96D-01  4.77D-01
                    CP:  6.23D-01  4.44D-01  5.52D-01  8.50D-01
 E= -7517.82120236959     Delta-E=       -0.000007743851 Rises=F Damp=F
 DIIS: error= 4.29D-05 at cycle  10 NSaved=  10.
 NSaved=10 IEnMin=10 EnMin= -7517.82120236959     IErMin=10 ErrMin= 4.29D-05
 ErrMax= 4.29D-05  0.00D+00 EMaxC= 1.00D-01 BMatC= 4.88D-06 BMatP= 1.05D-05
 IDIUse=1 WtCom= 1.00D+00 WtEn= 0.00D+00
 Coeff-Com:  0.498D-03-0.114D-02 0.224D-03-0.119D-02-0.720D-02-0.624D-02
 Coeff-Com:  0.815D-02 0.406D-01 0.516D+00 0.450D+00
 Coeff:      0.498D-03-0.114D-02 0.224D-03-0.119D-02-0.720D-02-0.624D-02
 Coeff:      0.815D-02 0.406D-01 0.516D+00 0.450D+00
 Gap=     0.124 Goal=   None    Shift=    0.000
 RMSDP=7.04D-06 MaxDP=3.18D-04 DE=-7.74D-06 OVMax= 7.83D-04

 Cycle  11  Pass 1  IDiag  1:
 RMSU=  3.92D-06    CP:  1.00D+00  5.54D-01  1.09D-01  6.96D-01  4.77D-01
                    CP:  6.25D-01  4.44D-01  5.43D-01  9.80D-01  4.45D-01
 E= -7517.82120624849     Delta-E=       -0.000003878902 Rises=F Damp=F
 DIIS: error= 2.84D-05 at cycle  11 NSaved=  11.
 NSaved=11 IEnMin=11 EnMin= -7517.82120624849     IErMin=11 ErrMin= 2.84D-05
 ErrMax= 2.84D-05  0.00D+00 EMaxC= 1.00D-01 BMatC= 8.90D-07 BMatP= 4.88D-06
 IDIUse=1 WtCom= 1.00D+00 WtEn= 0.00D+00
 Coeff-Com:  0.149D-03-0.365D-03 0.137D-03-0.121D-02-0.526D-02-0.652D-02
 Coeff-Com: -0.203D-02 0.147D-01 0.280D+00 0.334D+00 0.387D+00
 Coeff:      0.149D-03-0.365D-03 0.137D-03-0.121D-02-0.526D-02-0.652D-02
 Coeff:     -0.203D-02 0.147D-01 0.280D+00 0.334D+00 0.387D+00
 Gap=     0.124 Goal=   None    Shift=    0.000
 RMSDP=3.43D-06 MaxDP=1.55D-04 DE=-3.88D-06 OVMax= 3.99D-04

 Cycle  12  Pass 1  IDiag  1:
 RMSU=  2.00D-06    CP:  1.00D+00  5.54D-01  1.09D-01  6.96D-01  4.78D-01
                    CP:  6.25D-01  4.44D-01  5.45D-01  9.80D-01  5.56D-01
                    CP:  3.42D-01
 E= -7517.82120717959     Delta-E=       -0.000000931101 Rises=F Damp=F
 DIIS: error= 1.12D-05 at cycle  12 NSaved=  12.
 NSaved=12 IEnMin=12 EnMin= -7517.82120717959     IErMin=12 ErrMin= 1.12D-05
 ErrMax= 1.12D-05  0.00D+00 EMaxC= 1.00D-01 BMatC= 2.02D-07 BMatP= 8.90D-07
 IDIUse=1 WtCom= 1.00D+00 WtEn= 0.00D+00
 Coeff-Com:  0.394D-04-0.987D-04 0.422D-04-0.456D-03-0.194D-02-0.312D-02
 Coeff-Com: -0.354D-02 0.892D-03 0.830D-01 0.150D+00 0.326D+00 0.449D+00
 Coeff:      0.394D-04-0.987D-04 0.422D-04-0.456D-03-0.194D-02-0.312D-02
 Coeff:     -0.354D-02 0.892D-03 0.830D-01 0.150D+00 0.326D+00 0.449D+00
 Gap=     0.124 Goal=   None    Shift=    0.000
 RMSDP=1.27D-06 MaxDP=6.53D-05 DE=-9.31D-07 OVMax= 1.28D-04

 Cycle  13  Pass 1  IDiag  1:
 RMSU=  4.85D-07    CP:  1.00D+00  5.54D-01  1.09D-01  6.96D-01  4.77D-01
                    CP:  6.24D-01  4.44D-01  5.46D-01  9.73D-01  5.60D-01
                    CP:  5.07D-01  5.45D-01
 E= -7517.82120742864     Delta-E=       -0.000000249051 Rises=F Damp=F
 DIIS: error= 2.56D-06 at cycle  13 NSaved=  13.
 NSaved=13 IEnMin=13 EnMin= -7517.82120742864     IErMin=13 ErrMin= 2.56D-06
 ErrMax= 2.56D-06  0.00D+00 EMaxC= 1.00D-01 BMatC= 7.35D-09 BMatP= 2.02D-07
 IDIUse=1 WtCom= 1.00D+00 WtEn= 0.00D+00
 Coeff-Com:  0.988D-05-0.133D-04 0.870D-05-0.829D-04-0.392D-03-0.913D-03
 Coeff-Com: -0.179D-02-0.170D-02 0.275D-02 0.246D-01 0.101D+00 0.185D+00
 Coeff-Com:  0.691D+00
 Coeff:      0.988D-05-0.133D-04 0.870D-05-0.829D-04-0.392D-03-0.913D-03
 Coeff:     -0.179D-02-0.170D-02 0.275D-02 0.246D-01 0.101D+00 0.185D+00
 Coeff:      0.691D+00
 Gap=     0.124 Goal=   None    Shift=    0.000
 RMSDP=2.66D-07 MaxDP=1.11D-05 DE=-2.49D-07 OVMax= 3.28D-05

 Cycle  14  Pass 1  IDiag  1:
 RMSU=  1.53D-07    CP:  1.00D+00  5.54D-01  1.09D-01  6.96D-01  4.77D-01
                    CP:  6.24D-01  4.44D-01  5.46D-01  9.77D-01  5.60D-01
                    CP:  5.28D-01  5.80D-01  9.17D-01
 E= -7517.82120743838     Delta-E=       -0.000000009737 Rises=F Damp=F
 DIIS: error= 3.49D-07 at cycle  14 NSaved=  14.
 NSaved=14 IEnMin=14 EnMin= -7517.82120743838     IErMin=14 ErrMin= 3.49D-07
 ErrMax= 3.49D-07  0.00D+00 EMaxC= 1.00D-01 BMatC= 5.89D-10 BMatP= 7.35D-09
 IDIUse=1 WtCom= 1.00D+00 WtEn= 0.00D+00
 Coeff-Com:  0.169D-05 0.282D-05 0.606D-06 0.253D-05-0.152D-04-0.146D-03
 Coeff-Com: -0.545D-03-0.965D-03-0.696D-02-0.275D-02 0.170D-01 0.540D-01
 Coeff-Com:  0.337D+00 0.604D+00
 Coeff:      0.169D-05 0.282D-05 0.606D-06 0.253D-05-0.152D-04-0.146D-03
 Coeff:     -0.545D-03-0.965D-03-0.696D-02-0.275D-02 0.170D-01 0.540D-01
 Coeff:      0.337D+00 0.604D+00
 Gap=     0.124 Goal=   None    Shift=    0.000
 RMSDP=8.93D-08 MaxDP=6.26D-06 DE=-9.74D-09 OVMax= 8.68D-06

 Cycle  15  Pass 1  IDiag  1:
 RMSU=  6.03D-08    CP:  1.00D+00  5.54D-01  1.09D-01  6.96D-01  4.77D-01
                    CP:  6.24D-01  4.44D-01  5.46D-01  9.78D-01  5.63D-01
                    CP:  5.29D-01  5.94D-01  9.58D-01  7.16D-01
 E= -7517.82120743922     Delta-E=       -0.000000000837 Rises=F Damp=F
 DIIS: error= 2.09D-07 at cycle  15 NSaved=  15.
 NSaved=15 IEnMin=15 EnMin= -7517.82120743922     IErMin=15 ErrMin= 2.09D-07
 ErrMax= 2.09D-07  0.00D+00 EMaxC= 1.00D-01 BMatC= 7.79D-11 BMatP= 5.89D-10
 IDIUse=1 WtCom= 1.00D+00 WtEn= 0.00D+00
 Coeff-Com:  0.321D-06 0.209D-05-0.143D-06 0.123D-04 0.361D-04 0.273D-04
 Coeff-Com: -0.125D-03-0.370D-03-0.404D-02-0.330D-02 0.188D-02 0.166D-01
 Coeff-Com:  0.129D+00 0.328D+00 0.532D+00
 Coeff:      0.321D-06 0.209D-05-0.143D-06 0.123D-04 0.361D-04 0.273D-04
 Coeff:     -0.125D-03-0.370D-03-0.404D-02-0.330D-02 0.188D-02 0.166D-01
 Coeff:      0.129D+00 0.328D+00 0.532D+00
 Gap=     0.124 Goal=   None    Shift=    0.000
 RMSDP=3.56D-08 MaxDP=2.55D-06 DE=-8.37D-10 OVMax= 3.37D-06

 Cycle  16  Pass 1  IDiag  1:
 RMSU=  1.99D-08    CP:  1.00D+00  5.54D-01  1.09D-01  6.96D-01  4.77D-01
                    CP:  6.24D-01  4.44D-01  5.46D-01  9.78D-01  5.62D-01
                    CP:  5.28D-01  5.98D-01  9.60D-01  8.25D-01  6.77D-01
 E= -7517.82120743918     Delta-E=        0.000000000038 Rises=F Damp=F
 DIIS: error= 8.23D-08 at cycle  16 NSaved=  16.
 NSaved=16 IEnMin=15 EnMin= -7517.82120743922     IErMin=16 ErrMin= 8.23D-08
 ErrMax= 8.23D-08  0.00D+00 EMaxC= 1.00D-01 BMatC= 1.17D-11 BMatP= 7.79D-11
 IDIUse=1 WtCom= 1.00D+00 WtEn= 0.00D+00
 Coeff-Com: -0.413D-06 0.134D-05-0.192D-06 0.555D-05 0.204D-04 0.430D-04
 Coeff-Com:  0.270D-04-0.414D-04-0.102D-02-0.133D-02-0.169D-02 0.999D-04
 Coeff-Com:  0.169D-01 0.864D-01 0.305D+00 0.595D+00
 Coeff:     -0.413D-06 0.134D-05-0.192D-06 0.555D-05 0.204D-04 0.430D-04
 Coeff:      0.270D-04-0.414D-04-0.102D-02-0.133D-02-0.169D-02 0.999D-04
 Coeff:      0.169D-01 0.864D-01 0.305D+00 0.595D+00
 Gap=     0.124 Goal=   None    Shift=    0.000
 RMSDP=1.21D-08 MaxDP=6.79D-07 DE= 3.82D-11 OVMax= 1.21D-06

 Cycle  17  Pass 1  IDiag  1:
 RMSU=  5.97D-09    CP:  1.00D+00  5.54D-01  1.09D-01  6.96D-01  4.77D-01
                    CP:  6.24D-01  4.44D-01  5.46D-01  9.78D-01  5.62D-01
                    CP:  5.29D-01  5.98D-01  9.69D-01  8.14D-01  7.80D-01
                    CP:  7.42D-01
 E= -7517.82120743929     Delta-E=       -0.000000000107 Rises=F Damp=F
 DIIS: error= 1.45D-08 at cycle  17 NSaved=  17.
 NSaved=17 IEnMin=17 EnMin= -7517.82120743929     IErMin=17 ErrMin= 1.45D-08
 ErrMax= 1.45D-08  0.00D+00 EMaxC= 1.00D-01 BMatC= 6.47D-13 BMatP= 1.17D-11
 IDIUse=1 WtCom= 1.00D+00 WtEn= 0.00D+00
 Coeff-Com: -0.229D-06 0.455D-06-0.132D-06 0.156D-05 0.657D-05 0.178D-04
 Coeff-Com:  0.219D-04 0.112D-04-0.157D-03-0.393D-03-0.112D-02-0.166D-02
 Coeff-Com: -0.206D-02 0.129D-01 0.869D-01 0.266D+00 0.639D+00
 Coeff:     -0.229D-06 0.455D-06-0.132D-06 0.156D-05 0.657D-05 0.178D-04
 Coeff:      0.219D-04 0.112D-04-0.157D-03-0.393D-03-0.112D-02-0.166D-02
 Coeff:     -0.206D-02 0.129D-01 0.869D-01 0.266D+00 0.639D+00
 Gap=     0.124 Goal=   None    Shift=    0.000
 RMSDP=3.21D-09 MaxDP=2.07D-07 DE=-1.07D-10 OVMax= 4.39D-07

 SCF Done:  E(RPBE1PBE) =  -7517.82120744     A.U. after   17 cycles
            NFock= 17  Conv=0.32D-08     -V/T= 2.1285
 KE= 6.661951719598D+03 PE=-2.473432424921D+04 EE= 6.983064766402D+03
 Leave Link  502 at Tue Mar  6 12:23:55 2018, MaxMem=   536870912 cpu:      6143.8
 (Enter /share/apps//mg09/l601.exe)
 Copying SCF densities to generalized density rwf, IOpCl= 0 IROHF=0.

 **********************************************************************

            Population analysis using the SCF density.

 **********************************************************************

 Orbital symmetries:
       Occupied  (A) (A) (A) (A) (A) (A) (A) (A) (A) (A) (A) (A)
                 (A) (A) (A) (A) (A) (A) (A) (A) (A) (A) (A) (A)
                 (A) (A) (A) (A) (A) (A) (A) (A) (A) (A) (A) (A)
                 (A) (A) (A) (A) (A) (A) (A) (A) (A) (A) (A) (A)
                 (A) (A) (A) (A) (A) (A) (A) (A) (A) (A) (A) (A)
                 (A) (A) (A) (A) (A) (A) (A) (A) (A) (A) (A) (A)
                 (A) (A) (A) (A) (A) (A) (A) (A) (A) (A) (A) (A)
                 (A) (A) (A) (A) (A) (A) (A) (A) (A) (A) (A) (A)
                 (A) (A) (A) (A) (A) (A) (A) (A) (A) (A) (A) (A)
                 (A) (A) (A) (A) (A) (A) (A) (A)
       Virtual   (A) (A) (A) (A) (A) (A) (A) (A) (A) (A) (A) (A)
                 (A) (A) (A) (A) (A) (A) (A) (A) (A) (A) (A) (A)
                 (A) (A) (A) (A) (A) (A) (A) (A) (A) (A) (A) (A)
                 (A) (A) (A) (A) (A) (A) (A) (A) (A) (A) (A) (A)
                 (A) (A) (A) (A) (A) (A) (A) (A) (A) (A) (A) (A)
                 (A) (A) (A) (A) (A) (A) (A) (A) (A) (A) (A) (A)
                 (A) (A) (A) (A) (A) (A) (A) (A) (A) (A) (A) (A)
                 (A) (A) (A) (A) (A) (A) (A) (A) (A) (A) (A) (A)
                 (A) (A) (A) (A) (A) (A) (A) (A) (A) (A) (A) (A)
                 (A) (A) (A) (A) (A) (A) (A) (A) (A) (A) (A) (A)
                 (A) (A) (A) (A) (A) (A) (A) (A) (A) (A) (A) (A)
                 (A) (A) (A) (A) (A) (A) (A) (A) (A) (A) (A) (A)
                 (A) (A) (A) (A) (A) (A) (A) (A) (A) (A) (A) (A)
                 (A) (A) (A) (A) (A) (A) (A) (A) (A) (A) (A) (A)
                 (A) (A) (A) (A) (A) (A) (A) (A) (A) (A) (A) (A)
                 (A) (A) (A) (A) (A) (A) (A) (A) (A) (A) (A) (A)
                 (A) (A) (A) (A) (A) (A) (A) (A) (A) (A) (A) (A)
                 (A) (A) (A) (A) (A) (A) (A) (A) (A) (A) (A) (A)
                 (A) (A) (A) (A) (A) (A) (A) (A) (A) (A) (A) (A)
                 (A) (A) (A) (A) (A) (A) (A) (A) (A) (A) (A) (A)
                 (A) (A) (A) (A) (A) (A) (A) (A) (A) (A) (A) (A)
                 (A) (A) (A) (A) (A) (A) (A) (A) (A) (A) (A) (A)
                 (A) (A) (A) (A) (A) (A) (A) (A) (A) (A) (A) (A)
                 (A) (A) (A) (A) (A) (A) (A) (A) (A) (A) (A) (A)
                 (A) (A) (A) (A) (A) (A) (A) (A) (A) (A) (A) (A)
                 (A) (A) (A) (A) (A) (A) (A) (A) (A) (A) (A) (A)
                 (A) (A) (A) (A) (A) (A) (A) (A) (A) (A) (A) (A)
                 (A) (A) (A) (A)
 The electronic state is 1-A.
 Alpha  occ. eigenvalues -- -399.09914-399.09882-399.08887 -49.91465 -49.91438
 Alpha  occ. eigenvalues --  -49.90503 -44.39555 -44.39528 -44.39523 -44.39506
 Alpha  occ. eigenvalues --  -44.39489 -44.39450 -44.38589 -44.38556 -44.38515
 Alpha  occ. eigenvalues --   -6.27964  -6.27940  -6.27020  -6.02143  -6.01904
 Alpha  occ. eigenvalues --   -6.01526  -6.01157  -5.14030  -5.13313  -4.43424
 Alpha  occ. eigenvalues --   -4.43401  -4.43336  -4.43318  -4.43206  -4.43144
 Alpha  occ. eigenvalues --   -4.42501  -4.42386  -4.42246  -3.74452  -3.74238
 Alpha  occ. eigenvalues --   -3.74192  -3.74156  -3.73995  -3.73934  -3.73830
 Alpha  occ. eigenvalues --   -3.73719  -3.73490  -3.73423  -3.73263  -3.73126
 Alpha  occ. eigenvalues --   -3.47294  -3.47180  -3.46963  -3.46510  -3.46467
 Alpha  occ. eigenvalues --   -3.46302  -1.22894  -1.22874  -1.22862  -1.22840
 Alpha  occ. eigenvalues --   -1.22777  -1.22719  -1.22685  -1.22675  -1.22650
 Alpha  occ. eigenvalues --   -1.22596  -1.21960  -1.21920  -1.21806  -1.21715
 Alpha  occ. eigenvalues --   -1.21679  -1.08429  -1.08193  -1.08081  -1.08004
 Alpha  occ. eigenvalues --   -1.07900  -1.07822  -1.07788  -1.07733  -1.07717
 Alpha  occ. eigenvalues --   -1.07574  -1.07334  -1.07213  -1.07110  -1.07051
 Alpha  occ. eigenvalues --   -1.07026  -1.06972  -1.06945  -1.06786  -1.06756
 Alpha  occ. eigenvalues --   -1.06687  -1.03486  -1.03469  -1.03277  -1.03204
 Alpha  occ. eigenvalues --   -1.03163  -1.02720  -1.02708  -1.02571  -1.02506
 Alpha  occ. eigenvalues --   -1.02471  -0.66515  -0.62150  -0.59924  -0.56000
 Alpha  occ. eigenvalues --   -0.52058  -0.46688  -0.43521  -0.42570  -0.40597
 Alpha  occ. eigenvalues --   -0.28944  -0.27557  -0.26876  -0.25517  -0.24765
 Alpha  occ. eigenvalues --   -0.24330  -0.23264  -0.22702  -0.22325  -0.21193
 Alpha  occ. eigenvalues --   -0.20023
 Alpha virt. eigenvalues --   -0.07617  -0.07151  -0.07063  -0.06324  -0.06090
 Alpha virt. eigenvalues --   -0.05747  -0.05235  -0.04458  -0.04191  -0.03687
 Alpha virt. eigenvalues --   -0.03395  -0.02362  -0.01547   0.03611   0.05299
 Alpha virt. eigenvalues --    0.05597   0.06387   0.07950   0.08697   0.09008
 Alpha virt. eigenvalues --    0.09332   0.09576   0.09858   0.10405   0.10720
 Alpha virt. eigenvalues --    0.10980   0.11469   0.11824   0.12474   0.13336
 Alpha virt. eigenvalues --    0.13693   0.15906   0.16597   0.16980   0.17738
 Alpha virt. eigenvalues --    0.18306   0.18460   0.19363   0.19642   0.20055
 Alpha virt. eigenvalues --    0.20579   0.21353   0.21945   0.23284   0.23815
 Alpha virt. eigenvalues --    0.24622   0.24990   0.26361   0.26933   0.28301
 Alpha virt. eigenvalues --    0.29256   0.29905   0.30337   0.30836   0.31285
 Alpha virt. eigenvalues --    0.32063   0.32570   0.33033   0.33171   0.34314
 Alpha virt. eigenvalues --    0.34345   0.35490   0.36345   0.37237   0.38515
 Alpha virt. eigenvalues --    0.38713   0.40371   0.40565   0.41049   0.41677
 Alpha virt. eigenvalues --    0.42101   0.42636   0.42954   0.43646   0.44546
 Alpha virt. eigenvalues --    0.45496   0.46119   0.46655   0.47297   0.48071
 Alpha virt. eigenvalues --    0.48975   0.49389   0.50286   0.50882   0.51630
 Alpha virt. eigenvalues --    0.52870   0.54333   0.54362   0.55027   0.55738
 Alpha virt. eigenvalues --    0.57394   0.57691   0.58483   0.59330   0.59705
 Alpha virt. eigenvalues --    0.60403   0.60717   0.60948   0.61558   0.62041
 Alpha virt. eigenvalues --    0.63884   0.64706   0.65133   0.65900   0.66161
 Alpha virt. eigenvalues --    0.66754   0.67169   0.68175   0.69165   0.69625
 Alpha virt. eigenvalues --    0.70086   0.70828   0.72994   0.73568   0.74470
 Alpha virt. eigenvalues --    0.74793   0.75377   0.75949   0.76758   0.78556
 Alpha virt. eigenvalues --    0.79111   0.79807   0.80541   0.81499   0.82336
 Alpha virt. eigenvalues --    0.83192   0.83670   0.84213   0.85453   0.85578
 Alpha virt. eigenvalues --    0.86233   0.86931   0.86992   0.88495   0.90187
 Alpha virt. eigenvalues --    0.90782   0.91378   0.92051   0.92867   0.93030
 Alpha virt. eigenvalues --    0.93397   0.95462   0.95766   0.96196   0.97039
 Alpha virt. eigenvalues --    0.97690   0.98642   0.99198   1.00249   1.00779
 Alpha virt. eigenvalues --    1.01894   1.03119   1.04876   1.06093   1.06585
 Alpha virt. eigenvalues --    1.07957   1.08946   1.09785   1.09952   1.11179
 Alpha virt. eigenvalues --    1.12050   1.13820   1.15447   1.16833   1.17747
 Alpha virt. eigenvalues --    1.18791   1.18991   1.19923   1.20232   1.20692
 Alpha virt. eigenvalues --    1.20987   1.21704   1.21950   1.22342   1.22577
 Alpha virt. eigenvalues --    1.23437   1.23529   1.23820   1.24730   1.25052
 Alpha virt. eigenvalues --    1.25860   1.26180   1.26486   1.27024   1.27382
 Alpha virt. eigenvalues --    1.27955   1.28490   1.29198   1.30060   1.30578
 Alpha virt. eigenvalues --    1.30995   1.31251   1.32259   1.32572   1.33455
 Alpha virt. eigenvalues --    1.34369   1.36142   1.37100   1.37888   1.38701
 Alpha virt. eigenvalues --    1.39913   1.40464   1.41463   1.42483   1.43095
 Alpha virt. eigenvalues --    1.44257   1.45387   1.45737   1.47656   1.47802
 Alpha virt. eigenvalues --    1.50108   1.51179   1.51631   1.52430   1.53257
 Alpha virt. eigenvalues --    1.53849   1.55136   1.56694   1.58856   1.60688
 Alpha virt. eigenvalues --    1.66542   1.67861   1.70649   2.03421   2.05114
 Alpha virt. eigenvalues --    2.08324   2.08975   2.09817   2.14944   2.15730
 Alpha virt. eigenvalues --    2.17117   2.17763   2.18662   2.19683   2.20167
 Alpha virt. eigenvalues --    2.21637   2.21939   2.23124   2.24613   2.25483
 Alpha virt. eigenvalues --    2.26239   2.28243   2.29441   2.30860   2.31846
 Alpha virt. eigenvalues --    2.32474   2.34521   2.36818   2.39210   2.39512
 Alpha virt. eigenvalues --    2.40367   2.41161   2.43336   2.44777   2.48290
 Alpha virt. eigenvalues --    2.48891   2.51226   2.53284   2.53662   2.55218
 Alpha virt. eigenvalues --    2.58241   2.59159   2.62847   2.64437   2.65495
 Alpha virt. eigenvalues --    2.68244   2.69005   2.70803   2.72471   2.73434
 Alpha virt. eigenvalues --    2.76124   2.76944   2.78509   2.83648   2.84301
 Alpha virt. eigenvalues --    2.86202   2.89252   2.89797   2.90593   2.99428
 Alpha virt. eigenvalues --    3.18996   3.23795   3.31925   3.36829   3.39298
 Alpha virt. eigenvalues --    3.41524   3.92906   3.94050   3.99419   4.00203
 Alpha virt. eigenvalues --    4.02686   4.04444   4.07774   4.16694   4.21983
 Alpha virt. eigenvalues --    5.22399   5.34860   5.43421  35.36339  35.39436
 Alpha virt. eigenvalues --   35.41258  35.42481  35.45778  35.47097  35.50694
 Alpha virt. eigenvalues --   35.50900  35.53219  35.54571  35.59761  35.62799
 Alpha virt. eigenvalues --   35.86732  35.93333  36.02463  36.06665  36.19038
 Alpha virt. eigenvalues --   36.21070  36.91641  36.96553  37.00925  37.04359
 Alpha virt. eigenvalues --   37.07905  37.12105 113.57212 113.58170 120.21973
 Alpha virt. eigenvalues --  120.23674 120.24962 120.25647
          Condensed to atoms (all electrons):
               1          2          3          4          5          6
     1  Bi  22.270800  -0.023108   0.122339  -0.027826   0.161862  -0.024836
     2  Bi  -0.023108  22.374384   0.155876   0.146643  -0.022057   0.187635
     3  Ge   0.122339   0.155876  31.525390   0.073473   0.145626  -0.017835
     4  Ge  -0.027826   0.146643   0.073473  31.503149   0.174311   0.137468
     5  Ge   0.161862  -0.022057   0.145626   0.174311  31.579721  -0.017148
     6  Bi  -0.024836   0.187635  -0.017835   0.137468  -0.017148  22.378935
     7  Bi   0.161589  -0.026086  -0.018082  -0.017897  -0.014501   0.194948
     8  Sn   0.148287   0.188049   0.103024  -0.014329  -0.013220  -0.016808
     9  Sn   0.084698  -0.018445  -0.022933   0.072641   0.170354   0.149748
               7          8          9
     1  Bi   0.161589   0.148287   0.084698
     2  Bi  -0.026086   0.188049  -0.018445
     3  Ge  -0.018082   0.103024  -0.022933
     4  Ge  -0.017897  -0.014329   0.072641
     5  Ge  -0.014501  -0.013220   0.170354
     6  Bi   0.194948  -0.016808   0.149748
     7  Bi  22.457177   0.171309   0.116171
     8  Sn   0.171309  21.439479  -0.014827
     9  Sn   0.116171  -0.014827  21.358740
 Mulliken charges:
               1
     1  Bi   0.126195
     2  Bi   0.037109
     3  Ge  -0.066877
     4  Ge  -0.047631
     5  Ge  -0.164949
     6  Bi   0.027893
     7  Bi  -0.024628
     8  Sn   0.009035
     9  Sn   0.103852
 Sum of Mulliken charges =   0.00000
 Mulliken charges with hydrogens summed into heavy atoms:
               1
     1  Bi   0.126195
     2  Bi   0.037109
     3  Ge  -0.066877
     4  Ge  -0.047631
     5  Ge  -0.164949
     6  Bi   0.027893
     7  Bi  -0.024628
     8  Sn   0.009035
     9  Sn   0.103852
 Electronic spatial extent (au):  <R**2>=           6170.0713
 Charge=              0.0000 electrons
 Dipole moment (field-independent basis, Debye):
    X=             -0.0283    Y=              1.1279    Z=             -1.4747  Tot=              1.8568
 Quadrupole moment (field-independent basis, Debye-Ang):
   XX=           -215.0968   YY=           -218.8930   ZZ=           -220.9895
   XY=             -0.4003   XZ=              0.8117   YZ=              1.0343
 Traceless Quadrupole moment (field-independent basis, Debye-Ang):
   XX=              3.2296   YY=             -0.5666   ZZ=             -2.6630
   XY=             -0.4003   XZ=              0.8117   YZ=              1.0343
 Octapole moment (field-independent basis, Debye-Ang**2):
  XXX=            -19.8596  YYY=             64.6585  ZZZ=           -109.7108  XYY=            -15.4416
  XXY=             16.6614  XXZ=            -39.5620  XZZ=             -9.8520  YZZ=             27.5576
  YYZ=            -34.9160  XYZ=             -0.5562
 Hexadecapole moment (field-independent basis, Debye-Ang**3):
 XXXX=          -3289.9868 YYYY=          -3240.7815 ZZZZ=          -3165.4985 XXXY=            -31.9849
 XXXZ=            -10.3585 YYYX=            -19.2342 YYYZ=            -46.2019 ZZZX=            -33.6913
 ZZZY=            -40.2433 XXYY=          -1079.1770 XXZZ=          -1098.6222 YYZZ=          -1056.9865
 XXYZ=             -6.9437 YYXZ=              3.7333 ZZXY=             11.8427
 N-N= 3.571486555772D+03 E-N=-2.473432423991D+04  KE= 6.661951719598D+03
 No NMR shielding tensors so no spin-rotation constants.
 Leave Link  601 at Tue Mar  6 12:23:58 2018, MaxMem=   536870912 cpu:         2.8
 (Enter /share/apps//mg09/l701.exe)
 Compute integral first derivatives.
 ... and contract with generalized density number  0.
   1 Symmetry operations used in ECPInt.
 ECPInt:  NShTT=   10440 NPrTT=   41973 LenC2=    9696 LenP2D=   27421.
 LDataN:  DoStor=T MaxTD1= 9 Len=  602
 Leave Link  701 at Tue Mar  6 12:24:29 2018, MaxMem=   536870912 cpu:       119.7
 (Enter /share/apps//mg09/l702.exe)
 L702 exits ... SP integral derivatives will be done elsewhere.
 Leave Link  702 at Tue Mar  6 12:24:29 2018, MaxMem=   536870912 cpu:         0.4
 (Enter /share/apps//mg09/l703.exe)
 Compute integral first derivatives, UseDBF=F ICtDFT=           0.
 Integral derivatives from FoFJK, PRISM(SPDF).
 Calling FoFJK, ICntrl=      2127 FMM=F ISym2X=0 I1Cent= 0 IOpClX= 0 NMat=1 NMatS=1 NMatT=0.
 FoFJK:  IHMeth= 1 ICntrl=    2127 DoSepK=F KAlg= 0 I1Cent=   0 FoldK=F
 IRaf=         0 NMat=   1 IRICut=       1 DoRegI=T DoRafI=F ISym2E= 0.
 FoFCou: FMM=F IPFlag=           0 FMFlag=      100000 FMFlg1=         800
         NFxFlg=           0 DoJE=F BraDBF=F KetDBF=F FulRan=T
         wScrn=  0.000000 ICntrl=    2127 IOpCl=  0 I1Cent=           0 NGrid=           0
         NMat0=    1 NMatS0=      1 NMatT0=    0 NMatD0=    1 NMtDS0=    0 NMtDT0=    0
 Symmetry not used in FoFCou.
 Defaulting to unpruned grid for atomic number  83.
 Defaulting to unpruned grid for atomic number  83.
 Defaulting to unpruned grid for atomic number  83.
 Defaulting to unpruned grid for atomic number  83.
 Leave Link  703 at Tue Mar  6 12:32:44 2018, MaxMem=   536870912 cpu:      1814.0
 (Enter /share/apps//mg09/l716.exe)
 Dipole        =-1.11482835D-02 4.43735606D-01-5.80196856D-01
 ***** Axes restored to original set *****
 -------------------------------------------------------------------
 Center     Atomic                   Forces (Hartrees/Bohr)
 Number     Number              X              Y              Z
 -------------------------------------------------------------------
      1       83          -0.009789632    0.000495777    0.003363456
      2       83           0.008738558    0.002109821    0.004150486
      3       32           0.000482790    0.015184994   -0.000674145
      4       32           0.012756907   -0.001929578   -0.009094527
      5       32          -0.010743252    0.001996371   -0.013710112
      6       83           0.005435779   -0.005627118    0.003003124
      7       83          -0.001907677   -0.004319350    0.004932863
      8       50          -0.000105733    0.004053766    0.010551729
      9       50          -0.004867739   -0.011964682   -0.002522874
 -------------------------------------------------------------------
 Cartesian Forces:  Max     0.015184994 RMS     0.007229329
 Force constants in Cartesian coordinates: 
                1             2             3             4             5 
      1  0.222685D+00
      2 -0.111350D-01  0.137001D+00
      3 -0.160337D-01 -0.264279D-02  0.173304D+00
      4 -0.645706D-02  0.345903D-02  0.417484D-03  0.176436D+00
      5 -0.564976D-02  0.439108D-02 -0.126105D-02  0.933251D-02  0.128803D+00
      6 -0.207620D-02 -0.919791D-03  0.603016D-02  0.275354D-01  0.200529D-01
      7 -0.518277D-01 -0.326483D-01  0.121533D-01 -0.576380D-01  0.355425D-01
      8  0.453841D-02 -0.440286D-01  0.491734D-02 -0.118259D-02 -0.437459D-01
      9  0.564444D-02  0.147117D-01 -0.233533D-01 -0.180990D-01  0.178550D-01
     10 -0.657786D-02  0.314214D-02  0.313249D-02 -0.360494D-01 -0.117465D-01
     11  0.140689D-02  0.746005D-02  0.426935D-03  0.572376D-03 -0.257179D-01
     12  0.118614D-01 -0.193007D-02  0.200184D-02  0.986231D-02 -0.133126D-01
     13 -0.412619D-01  0.206849D-02  0.393183D-01 -0.180557D-03 -0.499385D-02
     14  0.526536D-02 -0.204419D-01 -0.297122D-02 -0.211991D-02  0.800202D-02
     15 -0.379497D-02  0.537349D-02 -0.731045D-01 -0.904237D-02 -0.151818D-03
     16 -0.388314D-02 -0.133131D-03  0.294168D-03 -0.279482D-01 -0.210027D-01
     17  0.913048D-02  0.130870D-02 -0.294362D-03  0.106117D-01 -0.544844D-01
     18 -0.879986D-03  0.333747D-03  0.540010D-02 -0.287871D-02 -0.132023D-01
     19 -0.362295D-01  0.281881D-01 -0.182440D-01 -0.245119D-02 -0.593304D-02
     20  0.340501D-02 -0.344608D-01  0.194964D-01 -0.610728D-02  0.144727D-02
     21  0.774436D-02  0.100649D-01 -0.331402D-01  0.347831D-03  0.403509D-02
     22 -0.468690D-01 -0.148091D-01 -0.313404D-01 -0.457690D-01  0.532926D-02
     23  0.331919D-02 -0.181765D-01 -0.750443D-02 -0.647672D-02 -0.195318D-01
     24  0.311850D-02 -0.109570D-01 -0.388068D-01 -0.298324D-02 -0.963189D-02
     25 -0.295790D-01  0.218678D-01  0.103023D-01  0.576660D-04 -0.878462D-03
     26 -0.102806D-01 -0.330529D-01 -0.101668D-01 -0.808907D-02  0.836727D-03
     27 -0.558389D-02 -0.140341D-01 -0.183310D-01 -0.515969D-02 -0.438338D-02
                6             7             8             9            10 
      6  0.134264D+00
      7 -0.248148D-01  0.166668D+00
      8  0.162357D-02  0.307501D-02  0.231024D+00
      9 -0.315879D-01  0.162307D-01 -0.196549D-01  0.162429D+00
     10 -0.279170D-01 -0.260819D-01 -0.468830D-02  0.123843D-01  0.190867D+00
     11 -0.247712D-01  0.199820D-01 -0.411483D-01 -0.165413D-01 -0.513814D-02
     12 -0.685963D-01  0.862779D-02  0.119339D-01 -0.311005D-01 -0.229922D-01
     13 -0.386189D-02 -0.318383D-01  0.101287D-02 -0.160226D-01 -0.705552D-01
     14  0.310836D-02 -0.219960D-01 -0.530203D-01 -0.314185D-01  0.703943D-02
     15  0.126647D-02 -0.120673D-01  0.905286D-02 -0.462597D-01  0.195956D-01
     16 -0.231961D-02  0.305775D-02  0.853849D-02 -0.215392D-02 -0.303615D-01
     17  0.608243D-02 -0.390334D-03 -0.414173D-02  0.436155D-02  0.146305D-01
     18 -0.148534D-01  0.126740D-02  0.996520D-03  0.539682D-02 -0.116316D-01
     19  0.294256D-03  0.481517D-02 -0.440871D-02  0.319928D-02  0.309279D-02
     20  0.405975D-02  0.197506D-02 -0.293599D-02  0.169089D-02 -0.446764D-02
     21  0.113230D-02  0.346799D-03  0.821016D-02  0.159618D-02  0.470704D-02
     22  0.327533D-01 -0.140112D-01 -0.149436D-02 -0.326109D-03  0.485505D-02
     23 -0.632440D-02 -0.381864D-02 -0.325494D-01  0.273251D-01  0.265109D-02
     24 -0.317692D-01  0.146730D-03 -0.113802D-01 -0.439040D-01  0.569013D-02
     25  0.406512D-03  0.685574D-02 -0.539082D-02 -0.857142D-03 -0.291893D-01
     26 -0.291157D-02 -0.172135D-02 -0.945393D-02  0.167044D-02 -0.142252D-02
     27  0.411354D-02 -0.189063D-02 -0.569934D-02  0.678322D-02  0.170312D-01
               11            12            13            14            15 
     11  0.145013D+00
     12 -0.209776D-02  0.224748D+00
     13  0.111175D-01 -0.263302D-01  0.151451D+00
     14 -0.271679D-01  0.692355D-02 -0.592217D-02  0.136246D+00
     15 -0.206425D-02 -0.397614D-01  0.232167D-01 -0.907886D-02  0.199765D+00
     16 -0.363269D-02  0.144081D-01  0.312693D-02  0.533899D-02 -0.730857D-02
     17 -0.374068D-01  0.132732D-01  0.667586D-02  0.300336D-02  0.448226D-02
     18  0.367372D-01 -0.544148D-01 -0.263279D-02 -0.622210D-03  0.108598D-02
     19  0.460911D-03  0.437663D-02  0.453831D-02 -0.309880D-02  0.115345D-02
     20  0.307589D-02  0.680316D-02 -0.173133D-03  0.487668D-02  0.697581D-02
     21 -0.144675D-02 -0.271234D-02 -0.429082D-02  0.421128D-02 -0.303004D-02
     22 -0.159248D-02  0.188776D-02  0.679268D-02  0.330049D-02 -0.939696D-03
     23  0.371292D-02 -0.706412D-02  0.136539D-02  0.581456D-02 -0.556079D-02
     24  0.692404D-03 -0.351844D-02 -0.502401D-02 -0.132947D-03 -0.415936D-02
     25 -0.231764D-01 -0.170167D-02 -0.220733D-01  0.121926D-01 -0.108128D-01
     26 -0.278206D-01 -0.145293D-01 -0.111510D-01 -0.573127D-01 -0.902871D-02
     27  0.906478D-02 -0.266464D-01 -0.437276D-02  0.299806D-01 -0.358029D-01
               16            17            18            19            20 
     16  0.146877D+00
     17 -0.230162D-01  0.148277D+00
     18  0.100491D-01 -0.220834D-01  0.113400D+00
     19 -0.451654D-01 -0.313125D-02  0.308079D-01  0.100646D+00
     20  0.146414D-01 -0.251305D-01 -0.458533D-02  0.160088D-02  0.131912D+00
     21  0.375163D-02  0.100261D-01 -0.284946D-01 -0.176912D-01 -0.243622D-01
     22  0.254118D-02  0.601905D-02  0.276498D-03 -0.160942D-01 -0.752667D-02
     23  0.581795D-02 -0.152422D-02 -0.449969D-02 -0.875481D-02 -0.499841D-01
     24 -0.213184D-03 -0.388450D-02 -0.666193D-03  0.698983D-02  0.133328D-01
     25 -0.482447D-01 -0.205298D-01 -0.243778D-01 -0.131520D-01 -0.334767D-02
     26  0.134478D-01 -0.299015D-01  0.692544D-02 -0.492328D-02 -0.288009D-01
     27 -0.165077D-01 -0.119633D-01 -0.268543D-01 -0.108862D-01 -0.234113D-01
               21            22            23            24            25 
     21  0.141958D+00
     22 -0.285903D-03  0.104443D+00
     23 -0.223703D-01  0.100348D-01  0.111763D+00
     24 -0.267440D-01 -0.430512D-02  0.294633D-01  0.149442D+00
     25  0.537025D-02  0.411169D-02 -0.413822D-02 -0.341964D-02  0.131213D+00
     26  0.116317D-01  0.739047D-03  0.475570D-03 -0.750193D-02  0.234009D-01
     27 -0.505652D-01  0.227969D-02 -0.346463D-02  0.126331D-03  0.250900D-01
               26            27 
     26  0.185030D+00
     27  0.239107D-01  0.147177D+00
 Leave Link  716 at Tue Mar  6 12:32:45 2018, MaxMem=   536870912 cpu:         0.7
 (Enter /share/apps//mg09/l103.exe)

 GradGradGradGradGradGradGradGradGradGradGradGradGradGradGradGradGradGrad
 Berny optimization.
 Search for a local minimum.
 Step number   1 out of a maximum of  100
 All quantities printed in internal units (Hartrees-Bohrs-Radians)
 Second derivative matrix not updated -- first step.
 ITU=  0
     Eigenvalues ---    0.07643   0.11770   0.12481   0.12690   0.12969
     Eigenvalues ---    0.13345   0.14455   0.15667   0.16280   0.16289
     Eigenvalues ---    0.18402   0.21399   0.22181   0.23536   0.23815
     Eigenvalues ---    0.25275   0.27144   0.29164   0.30250   0.31067
     Eigenvalues ---    0.32087
 RFO step:  Lambda=-8.27562427D-03 EMin= 7.64345788D-02
 Linear search not attempted -- first point.
 TrRot=  0.000218  0.001638 -0.002664  0.000002  0.000020  0.000002
 Variable       Old X    -DE/DX   Delta X   Delta X   Delta X     New X
                                 (Linear)    (Quad)   (Total)
    X1        4.45016  -0.00979   0.00000  -0.05758  -0.05736   4.39280
    Y1       -1.38497   0.00050   0.00000   0.01225   0.01390  -1.37107
    Z1        0.03360   0.00336   0.00000   0.01434   0.01159   0.04520
    X2       -4.24340   0.00874   0.00000   0.05805   0.05827  -4.18514
    Y2       -2.39877   0.00211   0.00000   0.02370   0.02532  -2.37344
    Z2       -0.56844   0.00415   0.00000   0.02133   0.01875  -0.54969
    X3        0.13928   0.00048   0.00000   0.00250   0.00277   0.14205
    Y3       -4.67916   0.01518   0.00000   0.07671   0.07835  -4.60081
    Z3        1.76099  -0.00067   0.00000  -0.00476  -0.00743   1.75357
    X4       -2.58977   0.01276   0.00000   0.06310   0.06340  -2.52637
    Y4       -0.31138  -0.00193   0.00000  -0.00964  -0.00801  -0.31939
    Z4        4.23724  -0.00909   0.00000  -0.04814  -0.05076   4.18648
    X5        2.32557  -0.01074   0.00000  -0.05761  -0.05729   2.26828
    Y5       -1.35545   0.00200   0.00000   0.00955   0.01120  -1.34426
    Z5        5.05519  -0.01371   0.00000  -0.07360  -0.07631   4.97888
    X6       -3.18377   0.00544   0.00000   0.04084   0.04105  -3.14272
    Y6        3.24348  -0.00563   0.00000  -0.04488  -0.04326   3.20022
    Z6       -0.02569   0.00300   0.00000   0.01496   0.01236  -0.01332
    X7        1.64496  -0.00191   0.00000  -0.02097  -0.02082   1.62414
    Y7        2.63663  -0.00432   0.00000  -0.03762  -0.03598   2.60065
    Z7       -3.07954   0.00493   0.00000   0.04171   0.03901  -3.04053
    X8        0.46524  -0.00011   0.00000  -0.00285  -0.00269   0.46254
    Y8       -3.03754   0.00405   0.00000   0.02974   0.03138  -3.00616
    Z8       -3.85600   0.01055   0.00000   0.07694   0.07427  -3.78173
    X9        1.82593  -0.00487   0.00000  -0.02759  -0.02733   1.79860
    Y9        3.61899  -0.01196   0.00000  -0.07455  -0.07290   3.54609
    Z9        2.82431  -0.00252   0.00000  -0.01879  -0.02149   2.80282
         Item               Value     Threshold  Converged?
 Maximum Force            0.015185     0.000450     NO 
 RMS     Force            0.007229     0.000300     NO 
 Maximum Displacement     0.078350     0.001800     NO 
 RMS     Displacement     0.043071     0.001200     NO 
 Predicted change in Energy=-4.345432D-03
 Lowest energy point so far.  Saving SCF results.
 GradGradGradGradGradGradGradGradGradGradGradGradGradGradGradGradGradGrad

 Leave Link  103 at Tue Mar  6 12:32:45 2018, MaxMem=   536870912 cpu:         0.1
 (Enter /share/apps//mg09/l202.exe)
                          Input orientation:                          
 ---------------------------------------------------------------------
 Center     Atomic      Atomic             Coordinates (Angstroms)
 Number     Number       Type             X           Y           Z
 ---------------------------------------------------------------------
      1         83           0        2.324569   -0.725537    0.023916
      2         83           0       -2.214678   -1.255972   -0.290884
      3         32           0        0.075172   -2.434646    0.927948
      4         32           0       -1.336895   -0.169012    2.215391
      5         32           0        1.200323   -0.711349    2.634711
      6         83           0       -1.663058    1.693484   -0.007051
      7         83           0        0.859457    1.376204   -1.608978
      8         50           0        0.244767   -1.590793   -2.001206
      9         50           0        0.951778    1.876511    1.483190
 ---------------------------------------------------------------------
                    Distance matrix (angstroms):
                    1          2          3          4          5
     1  Bi   0.000000
     2  Bi   4.580963   0.000000
     3  Ge   2.966161   2.849252   0.000000
     4  Ge   4.303324   2.869391   2.963872   0.000000
     5  Ge   2.842600   4.529675   2.673715   2.628200   0.000000
     6  Bi   4.664096   3.013991   4.575711   2.917966   4.578327
     7  Bi   3.038126   4.256293   4.644747   4.673057   4.741620
     8  Sn   3.029086   3.014328   3.052997   4.722585   4.814377
     9  Sn   3.284004   4.794396   4.434276   3.155679   2.843377
                    6          7          8          9
     6  Bi   0.000000
     7  Bi   3.004983   0.000000
     8  Sn   4.289863   3.055283   0.000000
     9  Sn   3.015242   3.133741   4.966193   0.000000
 Stoichiometry    Bi4Ge3Sn2
 Framework group  C1[X(Bi4Ge3Sn2)]
 Deg. of freedom    21
 Full point group                 C1      NOp   1
 RotChk:  IX=0 Diff= 1.93D-02
 Largest Abelian subgroup         C1      NOp   1
 Largest concise Abelian subgroup C1      NOp   1
                         Standard orientation:                         
 ---------------------------------------------------------------------
 Center     Atomic      Atomic             Coordinates (Angstroms)
 Number     Number       Type             X           Y           Z
 ---------------------------------------------------------------------
      1         83           0        2.326634   -0.714385    0.015855
      2         83           0       -2.209753   -1.257394   -0.318141
      3         32           0        0.081168   -2.443223    0.891705
      4         32           0       -1.342741   -0.199528    2.204281
      5         32           0        1.195335   -0.737891    2.623533
      6         83           0       -1.669835    1.690175    0.005063
      7         83           0        0.858133    1.402779   -1.593906
      8         50           0        0.255501   -1.561167   -2.025893
      9         50           0        0.940293    1.863629    1.504675
 ---------------------------------------------------------------------
 Rotational constants (GHZ):      0.1040954      0.0924296      0.0861446
 Leave Link  202 at Tue Mar  6 12:32:46 2018, MaxMem=   536870912 cpu:         0.1
 (Enter /share/apps//mg09/l301.exe)
 Standard basis: def2TZVP (5D, 7F)
 Ernie: Thresh=  0.10000D-02 Tol=  0.10000D-05 Strict=F.
 There are   519 symmetry adapted cartesian basis functions of A   symmetry.
 There are   444 symmetry adapted basis functions of A   symmetry.
   444 basis functions,   963 primitive gaussians,   519 cartesian basis functions
   116 alpha electrons      116 beta electrons
       nuclear repulsion energy      3628.8515554414 Hartrees.
 IExCor= 1009 DFT=T Ex+Corr=PBE1PBE ExCW=0 ScaHFX=  0.250000
 ScaDFX=  0.750000  0.750000  1.000000  1.000000 ScalE2=  1.000000  1.000000
 IRadAn=      0 IRanWt=     -1 IRanGd=            0 ICorTp=0 IEmpDi=  4
 NAtoms=    9 NActive=    9 NUniq=    9 SFac= 1.00D+00 NAtFMM=   60 NAOKFM=F Big=F
 Integral buffers will be    131072 words long.
 Raffenetti 2 integral format.
 Two-electron integral symmetry is turned on.
 Leave Link  301 at Tue Mar  6 12:32:46 2018, MaxMem=   536870912 cpu:         0.2
 (Enter /share/apps//mg09/l302.exe)
 NPDir=0 NMtPBC=     1 NCelOv=     1 NCel=       1 NClECP=     1 NCelD=      1
         NCelK=      1 NCelE2=     1 NClLst=     1 CellRange=     0.0.
 One-electron integrals computed using PRISM.
   1 Symmetry operations used in ECPInt.
 ECPInt:  NShTT=   10440 NPrTT=   41973 LenC2=    9714 LenP2D=   27600.
 LDataN:  DoStor=T MaxTD1= 8 Len=  415
 NBasis=   444 RedAO= T EigKep=  1.32D-03  NBF=   444
 NBsUse=   444 1.00D-06 EigRej= -1.00D+00 NBFU=   444
 Precomputing XC quadrature grid using
 IXCGrd= 4 IRadAn=           0 IRanWt=          -1 IRanGd=           0 AccXCQ= 0.00D+00.
 Defaulting to unpruned grid for atomic number  83.
 Defaulting to unpruned grid for atomic number  83.
 Defaulting to unpruned grid for atomic number  83.
 Generated NRdTot=       0 NPtTot=           0 NUsed=           0 NTot=          32
 NSgBfM=   500   500   500   500   500 MxSgAt=     9 MxSgA2=     9.
 Leave Link  302 at Tue Mar  6 12:32:59 2018, MaxMem=   536870912 cpu:        51.4
 (Enter /share/apps//mg09/l303.exe)
 DipDrv:  MaxL=1.
 Leave Link  303 at Tue Mar  6 12:32:59 2018, MaxMem=   536870912 cpu:         0.2
 (Enter /share/apps//mg09/l401.exe)
 Initial guess from the checkpoint file:  "Isomer_06.chk"
 B after Tr=     0.000000    0.000000    0.000000
         Rot=    0.999977   -0.006400    0.001326   -0.001861 Ang=  -0.78 deg.
 Guess basis will be translated and rotated to current coordinates.
 JPrj=2 DoOrth=T DoCkMO=T.
 Generating alternative initial guess.
 ExpMin= 4.62D-02 ExpMax= 4.66D+05 ExpMxC= 4.50D+03 IAcc=2 IRadAn=         4 AccDes= 0.00D+00
 Harris functional with IExCor= 1009 and IRadAn=       4 diagonalized for initial guess.
 HarFok:  IExCor= 1009 AccDes= 0.00D+00 IRadAn=         4 IDoV= 1 UseB2=F ITyADJ=14
 ICtDFT=  3500011 ScaDFX=  1.000000  1.000000  1.000000  1.000000
 Defaulting to unpruned grid for atomic number  83.
 Defaulting to unpruned grid for atomic number  83.
 Defaulting to unpruned grid for atomic number  83.
 Defaulting to unpruned grid for atomic number  83.
 FoFCou: FMM=F IPFlag=           0 FMFlag=      100000 FMFlg1=           0
         NFxFlg=           0 DoJE=T BraDBF=F KetDBF=T FulRan=T
         wScrn=  0.000000 ICntrl=     500 IOpCl=  0 I1Cent=   200000004 NGrid=           0
         NMat0=    1 NMatS0=      1 NMatT0=    0 NMatD0=    1 NMtDS0=    0 NMtDT0=    0
 Petite list used in FoFCou.
 Harris En= -7518.62954035138    
 Leave Link  401 at Tue Mar  6 12:33:04 2018, MaxMem=   536870912 cpu:        18.1
 (Enter /share/apps//mg09/l502.exe)
 Closed shell SCF:
 Using DIIS extrapolation, IDIIS=  1040.
 Integral symmetry usage will be decided dynamically.
 IVT=     1410107 IEndB=     1410107 NGot=   536870912 MDV=   536322046
 LenX=   536322046 LenY=   536052166
 Requested convergence on RMS density matrix=1.00D-08 within 768 cycles.
 Requested convergence on MAX density matrix=1.00D-06.
 Requested convergence on             energy=1.00D-06.
 No special actions if energy rises.
 Fock matrices will be formed incrementally for  20 cycles.

 Cycle   1  Pass 1  IDiag  1:
 FoFJK:  IHMeth= 1 ICntrl=       0 DoSepK=F KAlg= 0 I1Cent=   0 FoldK=F
 IRaf= 880000000 NMat=   1 IRICut=       1 DoRegI=T DoRafI=F ISym2E= 0.
 FoFCou: FMM=F IPFlag=           0 FMFlag=      100000 FMFlg1=           0
         NFxFlg=           0 DoJE=F BraDBF=F KetDBF=F FulRan=T
         wScrn=  0.000000 ICntrl=       0 IOpCl=  0 I1Cent=           0 NGrid=           0
         NMat0=    1 NMatS0=      1 NMatT0=    0 NMatD0=    1 NMtDS0=    0 NMtDT0=    0
 Symmetry not used in FoFCou.
 Defaulting to unpruned grid for atomic number  83.
 Defaulting to unpruned grid for atomic number  83.
 Defaulting to unpruned grid for atomic number  83.
 Defaulting to unpruned grid for atomic number  83.
 E= -7517.82582038800    
 DIIS: error= 5.47D-03 at cycle   1 NSaved=   1.
 NSaved= 1 IEnMin= 1 EnMin= -7517.82582038800     IErMin= 1 ErrMin= 5.47D-03
 ErrMax= 5.47D-03  0.00D+00 EMaxC= 1.00D-01 BMatC= 7.68D-03 BMatP= 7.68D-03
 IDIUse=3 WtCom= 9.45D-01 WtEn= 5.47D-02
 Coeff-Com:  0.100D+01
 Coeff-En:   0.100D+01
 Coeff:      0.100D+01
 Gap=     7.520 Goal=   None    Shift=    0.000
 GapD=    7.520 DampG=2.000 DampE=1.000 DampFc=2.0000 IDamp=-1.
 RMSDP=1.75D-04 MaxDP=4.20D-03              OVMax= 1.87D-02

 Cycle   2  Pass 1  IDiag  1:
 RMSU=  1.74D-04    CP:  1.00D+00
 E= -7517.82577202662     Delta-E=        0.000048361380 Rises=F Damp=F
 DIIS: error= 1.54D-03 at cycle   2 NSaved=   2.
 NSaved= 2 IEnMin= 1 EnMin= -7517.82582038800     IErMin= 2 ErrMin= 1.54D-03
 ErrMax= 1.54D-03  0.00D+00 EMaxC= 1.00D-01 BMatC= 1.62D-03 BMatP= 7.68D-03
 IDIUse=3 WtCom= 9.85D-01 WtEn= 1.54D-02
 Coeff-Com:  0.213D+00 0.787D+00
 Coeff-En:   0.513D+00 0.487D+00
 Coeff:      0.218D+00 0.782D+00
 Gap=     0.126 Goal=   None    Shift=    0.000
 RMSDP=2.17D-04 MaxDP=8.37D-03 DE= 4.84D-05 OVMax= 1.82D-02

 Cycle   3  Pass 1  IDiag  1:
 RMSU=  2.01D-04    CP:  9.99D-01  5.49D-01
 E= -7517.82326806874     Delta-E=        0.002503957874 Rises=F Damp=F
 DIIS: error= 2.18D-03 at cycle   3 NSaved=   3.
 NSaved= 3 IEnMin= 1 EnMin= -7517.82582038800     IErMin= 2 ErrMin= 1.54D-03
 ErrMax= 2.18D-03  0.00D+00 EMaxC= 1.00D-01 BMatC= 4.11D-03 BMatP= 1.62D-03
 IDIUse=3 WtCom= 1.77D-01 WtEn= 8.23D-01
 Coeff-Com:  0.128D-01 0.611D+00 0.376D+00
 Coeff-En:   0.000D+00 0.684D+00 0.316D+00
 Coeff:      0.225D-02 0.671D+00 0.327D+00
 Gap=     0.128 Goal=   None    Shift=    0.000
 RMSDP=1.31D-04 MaxDP=4.50D-03 DE= 2.50D-03 OVMax= 1.40D-02

 Cycle   4  Pass 1  IDiag  1:
 RMSU=  5.68D-05    CP:  9.99D-01  7.99D-01  4.55D-01
 E= -7517.82683344474     Delta-E=       -0.003565375991 Rises=F Damp=F
 DIIS: error= 6.64D-04 at cycle   4 NSaved=   4.
 NSaved= 4 IEnMin= 4 EnMin= -7517.82683344474     IErMin= 4 ErrMin= 6.64D-04
 ErrMax= 6.64D-04  0.00D+00 EMaxC= 1.00D-01 BMatC= 3.46D-04 BMatP= 1.62D-03
 IDIUse=3 WtCom= 9.93D-01 WtEn= 6.64D-03
 Coeff-Com:  0.292D-03 0.451D+00 0.232D+00 0.317D+00
 Coeff-En:   0.000D+00 0.147D+00 0.000D+00 0.853D+00
 Coeff:      0.290D-03 0.449D+00 0.231D+00 0.320D+00
 Gap=     0.127 Goal=   None    Shift=    0.000
 RMSDP=4.59D-05 MaxDP=2.02D-03 DE=-3.57D-03 OVMax= 4.50D-03

 Cycle   5  Pass 1  IDiag  1:
 RMSU=  1.37D-05    CP:  9.99D-01  8.65D-01  4.24D-01  2.73D-01
 E= -7517.82712443932     Delta-E=       -0.000290994585 Rises=F Damp=F
 DIIS: error= 8.61D-05 at cycle   5 NSaved=   5.
 NSaved= 5 IEnMin= 5 EnMin= -7517.82712443932     IErMin= 5 ErrMin= 8.61D-05
 ErrMax= 8.61D-05  0.00D+00 EMaxC= 1.00D-01 BMatC= 1.28D-05 BMatP= 3.46D-04
 IDIUse=1 WtCom= 1.00D+00 WtEn= 0.00D+00
 Coeff-Com: -0.107D-02 0.221D+00 0.105D+00 0.210D+00 0.466D+00
 Coeff:     -0.107D-02 0.221D+00 0.105D+00 0.210D+00 0.466D+00
 Gap=     0.128 Goal=   None    Shift=    0.000
 RMSDP=9.24D-06 MaxDP=4.74D-04 DE=-2.91D-04 OVMax= 9.59D-04

 Cycle   6  Pass 1  IDiag  1:
 RMSU=  3.71D-06    CP:  9.99D-01  8.74D-01  4.14D-01  3.81D-01  6.49D-01
 E= -7517.82713660282     Delta-E=       -0.000012163495 Rises=F Damp=F
 DIIS: error= 1.52D-05 at cycle   6 NSaved=   6.
 NSaved= 6 IEnMin= 6 EnMin= -7517.82713660282     IErMin= 6 ErrMin= 1.52D-05
 ErrMax= 1.52D-05  0.00D+00 EMaxC= 1.00D-01 BMatC= 3.87D-07 BMatP= 1.28D-05
 IDIUse=1 WtCom= 1.00D+00 WtEn= 0.00D+00
 Coeff-Com: -0.488D-03 0.742D-01 0.366D-01 0.757D-01 0.215D+00 0.598D+00
 Coeff:     -0.488D-03 0.742D-01 0.366D-01 0.757D-01 0.215D+00 0.598D+00
 Gap=     0.128 Goal=   None    Shift=    0.000
 RMSDP=2.90D-06 MaxDP=1.37D-04 DE=-1.22D-05 OVMax= 3.66D-04

 Cycle   7  Pass 1  IDiag  1:
 RMSU=  2.46D-06    CP:  9.99D-01  8.77D-01  4.18D-01  3.75D-01  7.09D-01
                    CP:  7.91D-01
 E= -7517.82713663144     Delta-E=       -0.000000028620 Rises=F Damp=F
 DIIS: error= 1.92D-05 at cycle   7 NSaved=   7.
 NSaved= 7 IEnMin= 7 EnMin= -7517.82713663144     IErMin= 6 ErrMin= 1.52D-05
 ErrMax= 1.92D-05  0.00D+00 EMaxC= 1.00D-01 BMatC= 3.50D-07 BMatP= 3.87D-07
 IDIUse=1 WtCom= 1.00D+00 WtEn= 0.00D+00
 Coeff-Com: -0.155D-03 0.822D-02 0.553D-02 0.135D-01 0.686D-01 0.505D+00
 Coeff-Com:  0.399D+00
 Coeff:     -0.155D-03 0.822D-02 0.553D-02 0.135D-01 0.686D-01 0.505D+00
 Coeff:      0.399D+00
 Gap=     0.128 Goal=   None    Shift=    0.000
 RMSDP=2.04D-06 MaxDP=8.09D-05 DE=-2.86D-08 OVMax= 2.39D-04

 Cycle   8  Pass 1  IDiag  1:
 RMSU=  9.49D-07    CP:  9.99D-01  8.78D-01  4.20D-01  3.76D-01  7.23D-01
                    CP:  1.04D+00  3.98D-01
 E= -7517.82713701709     Delta-E=       -0.000000385651 Rises=F Damp=F
 DIIS: error= 7.26D-06 at cycle   8 NSaved=   8.
 NSaved= 8 IEnMin= 8 EnMin= -7517.82713701709     IErMin= 8 ErrMin= 7.26D-06
 ErrMax= 7.26D-06  0.00D+00 EMaxC= 1.00D-01 BMatC= 6.16D-08 BMatP= 3.50D-07
 IDIUse=1 WtCom= 1.00D+00 WtEn= 0.00D+00
 Coeff-Com:  0.425D-05-0.135D-01-0.539D-02-0.831D-02-0.221D-02 0.255D+00
 Coeff-Com:  0.320D+00 0.455D+00
 Coeff:      0.425D-05-0.135D-01-0.539D-02-0.831D-02-0.221D-02 0.255D+00
 Coeff:      0.320D+00 0.455D+00
 Gap=     0.128 Goal=   None    Shift=    0.000
 RMSDP=7.21D-07 MaxDP=3.70D-05 DE=-3.86D-07 OVMax= 8.33D-05

 Cycle   9  Pass 1  IDiag  1:
 RMSU=  2.59D-07    CP:  9.99D-01  8.78D-01  4.21D-01  3.79D-01  7.29D-01
                    CP:  1.05D+00  5.65D-01  5.02D-01
 E= -7517.82713708790     Delta-E=       -0.000000070810 Rises=F Damp=F
 DIIS: error= 1.28D-06 at cycle   9 NSaved=   9.
 NSaved= 9 IEnMin= 9 EnMin= -7517.82713708790     IErMin= 9 ErrMin= 1.28D-06
 ErrMax= 1.28D-06  0.00D+00 EMaxC= 1.00D-01 BMatC= 2.91D-09 BMatP= 6.16D-08
 IDIUse=1 WtCom= 1.00D+00 WtEn= 0.00D+00
 Coeff-Com:  0.206D-04-0.894D-02-0.378D-02-0.620D-02-0.101D-01 0.938D-01
 Coeff-Com:  0.145D+00 0.262D+00 0.528D+00
 Coeff:      0.206D-04-0.894D-02-0.378D-02-0.620D-02-0.101D-01 0.938D-01
 Coeff:      0.145D+00 0.262D+00 0.528D+00
 Gap=     0.128 Goal=   None    Shift=    0.000
 RMSDP=1.60D-07 MaxDP=1.13D-05 DE=-7.08D-08 OVMax= 2.15D-05

 Cycle  10  Pass 1  IDiag  1:
 RMSU=  8.87D-08    CP:  9.99D-01  8.79D-01  4.21D-01  3.80D-01  7.35D-01
                    CP:  1.06D+00  5.66D-01  5.77D-01  8.38D-01
 E= -7517.82713709079     Delta-E=       -0.000000002896 Rises=F Damp=F
 DIIS: error= 1.73D-07 at cycle  10 NSaved=  10.
 NSaved=10 IEnMin=10 EnMin= -7517.82713709079     IErMin=10 ErrMin= 1.73D-07
 ErrMax= 1.73D-07  0.00D+00 EMaxC= 1.00D-01 BMatC= 7.09D-11 BMatP= 2.91D-09
 IDIUse=1 WtCom= 1.00D+00 WtEn= 0.00D+00
 Coeff-Com:  0.251D-05-0.393D-03-0.159D-03-0.274D-03-0.191D-02-0.494D-02
 Coeff-Com: -0.218D-02 0.114D-01 0.125D+00 0.873D+00
 Coeff:      0.251D-05-0.393D-03-0.159D-03-0.274D-03-0.191D-02-0.494D-02
 Coeff:     -0.218D-02 0.114D-01 0.125D+00 0.873D+00
 Gap=     0.128 Goal=   None    Shift=    0.000
 RMSDP=5.58D-08 MaxDP=2.34D-06 DE=-2.90D-09 OVMax= 9.24D-06

 Cycle  11  Pass 1  IDiag  1:
 RMSU=  3.47D-08    CP:  9.99D-01  8.79D-01  4.21D-01  3.80D-01  7.35D-01
                    CP:  1.07D+00  5.70D-01  5.83D-01  9.30D-01  1.07D+00
 E= -7517.82713709026     Delta-E=        0.000000000531 Rises=F Damp=F
 DIIS: error= 1.69D-07 at cycle  11 NSaved=  11.
 NSaved=11 IEnMin=10 EnMin= -7517.82713709079     IErMin=11 ErrMin= 1.69D-07
 ErrMax= 1.69D-07  0.00D+00 EMaxC= 1.00D-01 BMatC= 5.28D-11 BMatP= 7.09D-11
 IDIUse=1 WtCom= 1.00D+00 WtEn= 0.00D+00
 Coeff-Com:  0.163D-07 0.458D-03 0.208D-03 0.303D-03-0.492D-03-0.108D-01
 Coeff-Com: -0.134D-01-0.140D-01 0.394D-01 0.602D+00 0.396D+00
 Coeff:      0.163D-07 0.458D-03 0.208D-03 0.303D-03-0.492D-03-0.108D-01
 Coeff:     -0.134D-01-0.140D-01 0.394D-01 0.602D+00 0.396D+00
 Gap=     0.128 Goal=   None    Shift=    0.000
 RMSDP=2.76D-08 MaxDP=1.49D-06 DE= 5.31D-10 OVMax= 3.11D-06

 Cycle  12  Pass 1  IDiag  1:
 RMSU=  1.73D-08    CP:  9.99D-01  8.79D-01  4.21D-01  3.80D-01  7.35D-01
                    CP:  1.07D+00  5.71D-01  5.87D-01  9.41D-01  1.15D+00
                    CP:  4.57D-01
 E= -7517.82713709044     Delta-E=       -0.000000000176 Rises=F Damp=F
 DIIS: error= 1.08D-07 at cycle  12 NSaved=  12.
 NSaved=12 IEnMin=10 EnMin= -7517.82713709079     IErMin=12 ErrMin= 1.08D-07
 ErrMax= 1.08D-07  0.00D+00 EMaxC= 1.00D-01 BMatC= 1.23D-11 BMatP= 5.28D-11
 IDIUse=1 WtCom= 1.00D+00 WtEn= 0.00D+00
 Coeff-Com: -0.414D-06 0.429D-03 0.194D-03 0.282D-03-0.281D-04-0.760D-02
 Coeff-Com: -0.101D-01-0.131D-01 0.649D-02 0.302D+00 0.318D+00 0.403D+00
 Coeff:     -0.414D-06 0.429D-03 0.194D-03 0.282D-03-0.281D-04-0.760D-02
 Coeff:     -0.101D-01-0.131D-01 0.649D-02 0.302D+00 0.318D+00 0.403D+00
 Gap=     0.128 Goal=   None    Shift=    0.000
 RMSDP=1.18D-08 MaxDP=4.86D-07 DE=-1.76D-10 OVMax= 1.47D-06

 Cycle  13  Pass 1  IDiag  1:
 RMSU=  6.11D-09    CP:  9.99D-01  8.79D-01  4.21D-01  3.80D-01  7.36D-01
                    CP:  1.07D+00  5.71D-01  5.88D-01  9.50D-01  1.17D+00
                    CP:  6.15D-01  5.57D-01
 E= -7517.82713709028     Delta-E=        0.000000000155 Rises=F Damp=F
 DIIS: error= 2.57D-08 at cycle  13 NSaved=  13.
 NSaved=13 IEnMin=10 EnMin= -7517.82713709079     IErMin=13 ErrMin= 2.57D-08
 ErrMax= 2.57D-08  0.00D+00 EMaxC= 1.00D-01 BMatC= 1.35D-12 BMatP= 1.23D-11
 IDIUse=1 WtCom= 1.00D+00 WtEn= 0.00D+00
 Coeff-Com: -0.341D-06 0.222D-03 0.993D-04 0.151D-03 0.117D-03-0.317D-02
 Coeff-Com: -0.441D-02-0.667D-02-0.562D-02 0.792D-01 0.138D+00 0.279D+00
 Coeff-Com:  0.523D+00
 Coeff:     -0.341D-06 0.222D-03 0.993D-04 0.151D-03 0.117D-03-0.317D-02
 Coeff:     -0.441D-02-0.667D-02-0.562D-02 0.792D-01 0.138D+00 0.279D+00
 Coeff:      0.523D+00
 Gap=     0.128 Goal=   None    Shift=    0.000
 RMSDP=3.80D-09 MaxDP=2.29D-07 DE= 1.55D-10 OVMax= 4.70D-07

 SCF Done:  E(RPBE1PBE) =  -7517.82713709     A.U. after   13 cycles
            NFock= 13  Conv=0.38D-08     -V/T= 2.1284
 KE= 6.662173169765D+03 PE=-2.484912902493D+04 EE= 7.040277162629D+03
 Leave Link  502 at Tue Mar  6 12:52:39 2018, MaxMem=   536870912 cpu:      4483.5
 (Enter /share/apps//mg09/l701.exe)
 Compute integral first derivatives.
 ... and contract with generalized density number  0.
   1 Symmetry operations used in ECPInt.
 ECPInt:  NShTT=   10440 NPrTT=   41973 LenC2=    9714 LenP2D=   27600.
 LDataN:  DoStor=T MaxTD1= 9 Len=  602
 Leave Link  701 at Tue Mar  6 12:53:13 2018, MaxMem=   536870912 cpu:       131.7
 (Enter /share/apps//mg09/l702.exe)
 L702 exits ... SP integral derivatives will be done elsewhere.
 Leave Link  702 at Tue Mar  6 12:53:13 2018, MaxMem=   536870912 cpu:         0.1
 (Enter /share/apps//mg09/l703.exe)
 Compute integral first derivatives, UseDBF=F ICtDFT=           0.
 Integral derivatives from FoFJK, PRISM(SPDF).
 Calling FoFJK, ICntrl=      2127 FMM=F ISym2X=0 I1Cent= 0 IOpClX= 0 NMat=1 NMatS=1 NMatT=0.
 FoFJK:  IHMeth= 1 ICntrl=    2127 DoSepK=F KAlg= 0 I1Cent=   0 FoldK=F
 IRaf=         0 NMat=   1 IRICut=       1 DoRegI=T DoRafI=F ISym2E= 0.
 FoFCou: FMM=F IPFlag=           0 FMFlag=      100000 FMFlg1=         800
         NFxFlg=           0 DoJE=F BraDBF=F KetDBF=F FulRan=T
         wScrn=  0.000000 ICntrl=    2127 IOpCl=  0 I1Cent=           0 NGrid=           0
         NMat0=    1 NMatS0=      1 NMatT0=    0 NMatD0=    1 NMtDS0=    0 NMtDT0=    0
 Symmetry not used in FoFCou.
 Defaulting to unpruned grid for atomic number  83.
 Defaulting to unpruned grid for atomic number  83.
 Defaulting to unpruned grid for atomic number  83.
 Defaulting to unpruned grid for atomic number  83.
 Leave Link  703 at Tue Mar  6 12:59:29 2018, MaxMem=   536870912 cpu:      1463.5
 (Enter /share/apps//mg09/l716.exe)
 Dipole        =-2.05355729D-02 4.67750230D-01-6.03204317D-01
 ***** Axes restored to original set *****
 -------------------------------------------------------------------
 Center     Atomic                   Forces (Hartrees/Bohr)
 Number     Number              X              Y              Z
 -------------------------------------------------------------------
      1       83          -0.002275097   -0.000606925    0.001993696
      2       83           0.002160564   -0.001125147    0.001958132
      3       32          -0.000064010    0.008438997   -0.000302165
      4       32           0.007838370   -0.001066905   -0.004730060
      5       32          -0.006047089    0.000500839   -0.005962691
      6       83           0.000488834   -0.000238689    0.002255571
      7       83           0.000142309   -0.000374333    0.000115520
      8       50           0.000137528    0.000471836    0.004843894
      9       50          -0.002381410   -0.005999675   -0.000171896
 -------------------------------------------------------------------
 Cartesian Forces:  Max     0.008438997 RMS     0.003436633
 Leave Link  716 at Tue Mar  6 12:59:30 2018, MaxMem=   536870912 cpu:         0.1
 (Enter /share/apps//mg09/l103.exe)

 GradGradGradGradGradGradGradGradGradGradGradGradGradGradGradGradGradGrad
 Berny optimization.
 Search for a local minimum.
 Step number   2 out of a maximum of  100
 All quantities printed in internal units (Hartrees-Bohrs-Radians)
 Update second derivatives using D2CorN and points    1    2
 DE= -5.93D-03 DEPred=-4.35D-03 R= 1.36D+00
 TightC=F SS=  1.41D+00  RLast= 2.24D-01 DXNew= 5.0454D-01 6.7140D-01
 Trust test= 1.36D+00 RLast= 2.24D-01 DXMaxT set to 5.05D-01
 ITU=  1  0
     Eigenvalues ---    0.07595   0.09459   0.11802   0.12519   0.12726
     Eigenvalues ---    0.12998   0.13875   0.14967   0.16056   0.16285
     Eigenvalues ---    0.18407   0.21357   0.22183   0.23133   0.23603
     Eigenvalues ---    0.25278   0.27115   0.29110   0.30254   0.31081
     Eigenvalues ---    0.32087
 RFO step:  Lambda=-5.52279077D-04 EMin= 7.59518185D-02
 Quartic linear search produced a step of  0.62639.
 TrRot=  0.000013  0.000186 -0.000298 -0.000014 -0.000010 -0.000014
 Variable       Old X    -DE/DX   Delta X   Delta X   Delta X     New X
                                 (Linear)    (Quad)   (Total)
    X1        4.39280  -0.00228  -0.03593   0.01156  -0.02440   4.36840
    Y1       -1.37107  -0.00061   0.00871  -0.00396   0.00481  -1.36626
    Z1        0.04520   0.00199   0.00726   0.00450   0.01151   0.05670
    X2       -4.18514   0.00216   0.03650  -0.01105   0.02540  -4.15974
    Y2       -2.37344  -0.00113   0.01586  -0.01449   0.00168  -2.37177
    Z2       -0.54969   0.00196   0.01174   0.00499   0.01639  -0.53330
    X3        0.14205  -0.00006   0.00174  -0.00070   0.00090   0.14296
    Y3       -4.60081   0.00844   0.04908   0.01211   0.06137  -4.53944
    Z3        1.75357  -0.00030  -0.00465  -0.00062  -0.00557   1.74800
    X4       -2.52637   0.00784   0.03971   0.01370   0.05337  -2.47299
    Y4       -0.31939  -0.00107  -0.00502  -0.00141  -0.00618  -0.32556
    Z4        4.18648  -0.00473  -0.03179  -0.00709  -0.03920   4.14728
    X5        2.26828  -0.00605  -0.03588  -0.01254  -0.04849   2.21979
    Y5       -1.34426   0.00050   0.00701  -0.00412   0.00302  -1.34124
    Z5        4.97888  -0.00596  -0.04780  -0.00588  -0.05396   4.92492
[...]
     X                             X  X           X     X                                                                            
     X                             X  X           X     X                                                                            
     X                             X  X           X     X                                                                            
     X                                X           X     X                                                                            
     X                                X           X     X                                                                            
     X                                            X     X                                                                            
     X                                            X     X                                                                            
     X                                            X     X                                                                            
     X                                            X                                                                                  
     X                                            X                                                                                  
     X                                            X                                                                                  
     X                                            X                                                                                  
     X                                            X                                                                                  
     X                                            X                                                                                  
     X                                            X                                                                                  
 
 ***** Axes restored to original set *****
 -------------------------------------------------------------------
 Center     Atomic                   Forces (Hartrees/Bohr)
 Number     Number              X              Y              Z
 -------------------------------------------------------------------
      1       83          -0.000182474    0.000173212   -0.000017246
      2       83           0.000193871    0.000041386   -0.000048747
      3       32          -0.000122349   -0.000065112    0.000005947
      4       32          -0.000046546    0.000037787    0.000198461
      5       32           0.000059651   -0.000043384    0.000076757
      6       83           0.000100105   -0.000066123   -0.000105293
      7       83           0.000054500   -0.000120342    0.000053554
      8       50          -0.000016773    0.000030621   -0.000144803
      9       50          -0.000039983    0.000011955   -0.000018630
 -------------------------------------------------------------------
 Cartesian Forces:  Max     0.000198461 RMS     0.000096014
 Force constants in Cartesian coordinates: 
                1             2             3             4             5 
      1  0.803045D-01
      2 -0.649843D-02  0.446205D-01
      3 -0.711578D-03 -0.682761D-02  0.672470D-01
      4 -0.472388D-02 -0.150713D-02 -0.154966D-02  0.795882D-01
      5  0.218335D-02 -0.949587D-03  0.570954D-03  0.552829D-02  0.617206D-01
      6  0.758780D-03  0.273262D-02  0.171368D-02  0.128827D-01  0.144750D-01
      7 -0.172559D-01 -0.122551D-01  0.436840D-02 -0.270491D-01  0.104288D-01
      8 -0.945842D-02 -0.977189D-02  0.657367D-02  0.892238D-02 -0.779334D-02
      9  0.416199D-02  0.721141D-02 -0.166236D-02 -0.131516D-01  0.716521D-02
     10 -0.566752D-02  0.323408D-03  0.756940D-02 -0.824073D-02 -0.484263D-02
     11  0.100007D-03 -0.566918D-02 -0.894219D-04 -0.519313D-02 -0.385128D-02
     12  0.185802D-02 -0.103984D-03 -0.435686D-02 -0.878268D-02 -0.128351D-01
     13 -0.103859D-01  0.165211D-02  0.142751D-01 -0.305753D-02  0.956815D-03
     14  0.199480D-02  0.248034D-03  0.319530D-04 -0.274825D-03 -0.258977D-02
     15  0.128438D-01  0.120847D-02 -0.332549D-01 -0.923377D-03  0.736207D-04
     16 -0.420968D-02  0.543781D-02 -0.330083D-02 -0.508804D-02 -0.691981D-02
     17 -0.107517D-02 -0.917180D-05 -0.133251D-02 -0.893716D-02 -0.416156D-01
     18  0.158336D-04 -0.469149D-02  0.186026D-02 -0.381261D-02 -0.178660D-02
     19 -0.123776D-01  0.158070D-01 -0.681466D-02 -0.247209D-02 -0.367815D-02
     20  0.146835D-01 -0.182415D-01  0.147765D-01  0.298038D-03 -0.376096D-02
     21 -0.653197D-02  0.177591D-01 -0.128581D-01 -0.402476D-03 -0.776147D-03
     22 -0.208878D-01 -0.842276D-02 -0.146976D-01 -0.291514D-01  0.462194D-02
     23 -0.757828D-02 -0.128042D-02 -0.761933D-02  0.171509D-02 -0.640686D-04
     24 -0.136429D-01 -0.923893D-02 -0.167408D-01  0.147477D-01 -0.418365D-02
     25 -0.479624D-02  0.546302D-02  0.861442D-03  0.194463D-03 -0.827863D-02
     26  0.564868D-02 -0.894685D-02 -0.608421D-02 -0.551552D-03 -0.109600D-02
     27  0.124799D-02 -0.804961D-02 -0.194788D-02  0.991982D-03 -0.270334D-02
                6             7             8             9            10 
      6  0.534228D-01
      7 -0.153766D-01  0.547967D-01
      8  0.427982D-02  0.483268D-02  0.659558D-01
      9 -0.588197D-02  0.150135D-01 -0.295749D-03  0.501503D-01
     10 -0.104696D-01 -0.198846D-02  0.420959D-02  0.390579D-02  0.696925D-01
     11 -0.126728D-01  0.677693D-02 -0.983967D-02 -0.503542D-02 -0.689771D-02
     12 -0.266652D-01  0.499601D-02 -0.946597D-03 -0.491991D-02  0.422854D-02
     13 -0.312048D-02 -0.767329D-02 -0.877193D-02 -0.119439D-01 -0.413724D-01
     14 -0.221925D-02 -0.111487D-01 -0.157106D-01 -0.172764D-01  0.909388D-02
     15 -0.351531D-02 -0.124052D-01 -0.136534D-01 -0.181490D-01 -0.556604D-02
     16 -0.389093D-02  0.226087D-02 -0.130125D-02  0.176689D-02 -0.404109D-02
     17 -0.577840D-02  0.751521D-02 -0.766818D-02  0.221420D-02  0.567631D-02
     18 -0.172321D-02  0.164795D-02  0.110329D-02 -0.263939D-02 -0.365790D-02
     19  0.537590D-02 -0.221770D-02  0.152407D-02 -0.151022D-02 -0.245361D-02
     20  0.280749D-02 -0.350863D-02 -0.463527D-02  0.555481D-02 -0.333316D-03
     21  0.314738D-03 -0.112206D-02  0.263571D-03  0.511027D-03  0.848694D-04
     22  0.149660D-01  0.375059D-02 -0.146660D-02  0.870216D-03  0.190482D-03
     23 -0.280181D-02 -0.106699D-03 -0.338667D-02  0.321468D-02  0.513390D-04
     24 -0.139989D-01  0.160102D-02  0.148319D-02 -0.160184D-01 -0.110133D-03
     25 -0.112569D-02 -0.462374D-02  0.150948D-02  0.887251D-03 -0.611918D-02
     26 -0.822661D-03 -0.253454D-02 -0.715017D-02 -0.275275D-02 -0.728087D-02
     27 -0.366667D-02  0.127697D-02  0.119220D-02 -0.139024D-02  0.401512D-02
               11            12            13            14            15 
     11  0.365593D-01
     12 -0.151131D-02  0.676985D-01
     13  0.110783D-01 -0.120800D-01  0.658669D-01
     14 -0.124262D-02  0.348723D-02 -0.432694D-02  0.510675D-01
     15  0.191780D-02 -0.368863D-02  0.136626D-01 -0.202783D-02  0.757195D-01
     16  0.512083D-02 -0.834668D-03 -0.405673D-02  0.138068D-02  0.680218D-03
     17 -0.107159D-01  0.151420D-01 -0.386236D-03 -0.139519D-02 -0.432378D-03
     18  0.155432D-01 -0.146675D-01 -0.111658D-02  0.305685D-02 -0.341176D-02
     19 -0.603563D-02  0.338299D-02  0.108077D-02  0.163409D-02 -0.275354D-02
     20  0.174014D-02 -0.368837D-02 -0.130331D-02  0.122029D-03  0.119259D-02
     21  0.244573D-02 -0.518437D-02  0.228962D-02  0.322006D-02 -0.361741D-02
     22  0.438068D-02  0.511014D-02  0.229057D-04 -0.232352D-02 -0.266885D-02
     23 -0.171459D-02  0.142023D-02 -0.264677D-03 -0.235293D-02  0.873015D-03
     24 -0.182502D-02 -0.510401D-02  0.794487D-03 -0.110782D-02 -0.326763D-02
     25 -0.933027D-02  0.212169D-02 -0.424657D-03  0.397056D-02 -0.286966D-02
     26 -0.526629D-02 -0.964153D-03  0.136588D-02 -0.281464D-01  0.108481D-01
     27  0.122729D-02 -0.311210D-02 -0.276086D-02  0.128352D-01 -0.681492D-02
               16            17            18            19            20 
     16  0.766696D-01
     17 -0.984257D-02  0.701868D-01
     18  0.246710D-02 -0.105583D-01  0.435626D-01
     19 -0.335167D-01  0.563657D-02  0.185155D-01  0.510291D-01
     20  0.660608D-02 -0.174612D-02  0.506832D-03 -0.845113D-02  0.613975D-01
     21  0.201123D-01  0.422670D-03 -0.158391D-01 -0.142016D-01 -0.162795D-01
     22 -0.934024D-03  0.167097D-02  0.319548D-02 -0.149970D-02 -0.658411D-02
     23 -0.505415D-04 -0.322391D-02 -0.420615D-02 -0.491351D-02 -0.299961D-01
     24 -0.604355D-03  0.810906D-03 -0.184841D-03 -0.909587D-03 -0.311368D-02
     25 -0.270841D-01 -0.257928D-03 -0.172548D-01  0.242760D-02 -0.140707D-02
     26 -0.431222D-03 -0.381282D-02  0.103238D-02 -0.152333D-02 -0.487976D-02
     27 -0.163957D-01 -0.488216D-03 -0.695705D-02 -0.108487D-02 -0.175668D-02
               21            22            23            24            25 
     21  0.642245D-01
     22 -0.104306D-02  0.502957D-01
     23 -0.257379D-02  0.914728D-02  0.433044D-01
     24 -0.535691D-02 -0.201460D-02  0.181498D-01  0.613584D-01
     25  0.814380D-03 -0.178676D-02  0.200001D-02  0.138326D-03  0.422127D-01
     26 -0.448172D-02 -0.102389D-02 -0.128574D-02 -0.974770D-03  0.633084D-02
     27 -0.221943D-01 -0.371774D-02 -0.645663D-02 -0.686922D-03  0.164271D-01
               26            27 
     26  0.605841D-01
     27  0.419978D-02  0.467701D-01
 Leave Link  716 at Tue Mar  6 16:55:50 2018, MaxMem=   536870912 cpu:         0.1
 (Enter /share/apps//mg09/l103.exe)

 GradGradGradGradGradGradGradGradGradGradGradGradGradGradGradGradGradGrad
 Berny optimization.
 Search for a local minimum.
 Step number   1 out of a maximum of    2
 All quantities printed in internal units (Hartrees-Bohrs-Radians)
 Second derivative matrix not updated -- analytic derivatives used.
 ITU=  0
     Eigenvalues ---    0.01105   0.02202   0.02713   0.03859   0.04381
     Eigenvalues ---    0.04505   0.05380   0.05705   0.06019   0.06030
     Eigenvalues ---    0.06362   0.07397   0.08177   0.09363   0.09977
     Eigenvalues ---    0.10502   0.11754   0.12566   0.13181   0.13487
     Eigenvalues ---    0.14750
 Angle between quadratic step and forces=  26.69 degrees.
 Linear search not attempted -- first point.
 TrRot=  0.000003 -0.000015  0.000105 -0.000009  0.000017 -0.000009
 Variable       Old X    -DE/DX   Delta X   Delta X   Delta X     New X
                                 (Linear)    (Quad)   (Total)
    X1        4.40788  -0.00018   0.00000  -0.00290  -0.00292   4.40496
    Y1       -1.34560   0.00017   0.00000   0.00190   0.00181  -1.34379
    Z1        0.05741  -0.00002   0.00000  -0.00037  -0.00034   0.05707
    X2       -4.18927   0.00019   0.00000   0.00283   0.00279  -4.18648
    Y2       -2.37768   0.00004   0.00000   0.00004   0.00009  -2.37759
    Z2       -0.53337  -0.00005   0.00000  -0.00020  -0.00003  -0.53340
    X3        0.12637  -0.00012   0.00000  -0.00156  -0.00160   0.12476
    Y3       -4.49623  -0.00007   0.00000  -0.00109  -0.00110  -4.49733
    Z3        1.73149   0.00001   0.00000   0.00083   0.00093   1.73242
    X4       -2.44017  -0.00005   0.00000   0.00040   0.00047  -2.43971
    Y4       -0.31909   0.00004   0.00000   0.00154   0.00157  -0.31752
    Z4        4.11248   0.00020   0.00000   0.00351   0.00366   4.11615
    X5        2.22202   0.00006   0.00000   0.00126   0.00133   2.22334
    Y5       -1.36762  -0.00004   0.00000  -0.00117  -0.00122  -1.36884
    Z5        4.93121   0.00008   0.00000   0.00057   0.00064   4.93185
    X6       -3.14713   0.00010   0.00000   0.00120   0.00126  -3.14587
    Y6        3.21503  -0.00007   0.00000  -0.00144  -0.00140   3.21363
    Z6        0.01541  -0.00011   0.00000  -0.00236  -0.00220   0.01321
    X7        1.60535   0.00005   0.00000   0.00114   0.00113   1.60648
    Y7        2.58660  -0.00012   0.00000  -0.00063  -0.00067   2.58593
    Z7       -3.04632   0.00005   0.00000  -0.00063  -0.00056  -3.04687
    X8        0.48131  -0.00002   0.00000  -0.00047  -0.00059   0.48073
    Y8       -3.02860   0.00003   0.00000   0.00081   0.00079  -3.02781
    Z8       -3.69189  -0.00014   0.00000  -0.00324  -0.00314  -3.69503
    X9        1.76784  -0.00004   0.00000  -0.00197  -0.00186   1.76598
    Y9        3.46502   0.00001   0.00000   0.00017   0.00013   3.46515
    Z9        2.80525  -0.00002   0.00000   0.00096   0.00103   2.80629
         Item               Value     Threshold  Converged?
 Maximum Force            0.000198     0.000450     YES
 RMS     Force            0.000096     0.000300     YES
 Maximum Displacement     0.003662     0.001800     NO 
 RMS     Displacement     0.001609     0.001200     NO 
 Predicted change in Energy=-1.858910D-06
 GradGradGradGradGradGradGradGradGradGradGradGradGradGradGradGradGradGrad

 Leave Link  103 at Tue Mar  6 16:55:50 2018, MaxMem=   536870912 cpu:         0.1
 (Enter /share/apps//mg09/l9999.exe)
 1\1\GINC-COMPUTE-0-11\Freq\RPBE1PBE\def2TZVP\Bi4Ge3Sn2\RODRIGO\06-Mar-
 2018\0\\#P Geom=AllCheck Guess=TCheck SCRF=Check GenChk RPBE1PBE/def2T
 ZVP Freq\\01Final_coords.xyz_06\\0,1\Bi,2.3325498439,-0.7120613401,0.0
 303796757\Bi,-2.2168668315,-1.2582128267,-0.2822488112\Ge,0.0668706244
 ,-2.3793018432,0.9162631468\Ge,-1.2912832552,-0.168856434,2.1762329472
 \Ge,1.1758414944,-0.7237132991,2.6094831979\Bi,-1.6653877543,1.7013203
 14,0.0081562854\Bi,0.8495119972,1.3687679752,-1.6120421665\Sn,0.254699
 8367,-1.6026639464,-1.9536650669\Sn,0.9354990443,1.8336104004,1.484476
 7917\\Version=ES64L-G09RevD.01\State=1-A\HF=-7517.828911\RMSD=5.728e-0
 9\RMSF=9.601e-05\ZeroPoint=0.0058953\Thermal=0.0233063\Dipole=-0.02406
 32,0.470697,-0.6319386\DipoleDeriv=0.1088901,-0.0532121,-0.0101281,-0.
 0433257,0.0228301,0.0257085,0.0306849,0.0057462,-0.0658774,0.0151339,0
 .1241587,0.0383059,0.0508868,-0.020922,-0.0492001,-0.0326801,-0.086845
 5,-0.1515238,-0.0111117,-0.0080119,-0.0320274,0.0233878,0.0281339,-0.0
 808621,-0.0102811,-0.0452696,-0.0594383,-0.0238761,0.0495373,-0.113383
 7,0.0346789,-0.0334754,0.0020483,-0.0192291,0.0159355,-0.0390995,-0.09
 85722,-0.0771527,0.1764859,-0.0614554,-0.1745586,-0.1071798,0.0637163,
 -0.0867463,0.1060481,-0.0152574,-0.1296562,-0.005874,-0.0804862,-0.019
 3727,0.0470299,-0.0245187,0.0416588,-0.0138272,-0.0432114,0.0507438,-0
 .0655059,0.0542348,-0.14942,-0.1258634,0.0068031,-0.0848325,-0.1043202
 ,-0.0292087,-0.0628857,-0.0489135,-0.0352667,0.1303262,0.1506033,-0.01
 31248,0.1520446,0.2084971,0.0972136,0.1064787,0.0610408,0.0573456,0.21
 64586,0.1377154,-0.0013705,0.0883088,0.1195412\Polar=374.5505558,4.184
 2193,378.6404706,3.5551582,11.9079948,379.8037398\PG=C01 [X(Bi4Ge3Sn2)
 ]\NImag=0\\0.08030454,-0.00649843,0.04462053,-0.00071158,-0.00682761,0
 .06724695,-0.00472388,-0.00150713,-0.00154966,0.07958824,0.00218335,-0
 .00094959,0.00057095,0.00552829,0.06172059,0.00075878,0.00273262,0.001
 71368,0.01288270,0.01447501,0.05342280,-0.01725592,-0.01225505,0.00436
 840,-0.02704907,0.01042883,-0.01537662,0.05479670,-0.00945842,-0.00977
 189,0.00657367,0.00892238,-0.00779334,0.00427982,0.00483268,0.06595583
 ,0.00416199,0.00721141,-0.00166236,-0.01315161,0.00716521,-0.00588197,
 0.01501355,-0.00029575,0.05015030,-0.00566752,0.00032341,0.00756940,-0
 .00824073,-0.00484263,-0.01046964,-0.00198846,0.00420959,0.00390579,0.
 06969251,0.00010001,-0.00566918,-0.00008942,-0.00519313,-0.00385128,-0
 .01267283,0.00677693,-0.00983967,-0.00503542,-0.00689771,0.03655935,0.
 00185802,-0.00010398,-0.00435686,-0.00878268,-0.01283506,-0.02666517,0
 .00499601,-0.00094660,-0.00491991,0.00422854,-0.00151131,0.06769854,-0
 .01038591,0.00165211,0.01427506,-0.00305753,0.00095682,-0.00312048,-0.
 00767329,-0.00877193,-0.01194385,-0.04137241,0.01107829,-0.01208004,0.
 06586685,0.00199480,0.00024803,0.00003195,-0.00027483,-0.00258977,-0.0
 0221925,-0.01114873,-0.01571064,-0.01727640,0.00909388,-0.00124262,0.0
 0348723,-0.00432694,0.05106752,0.01284383,0.00120847,-0.03325487,-0.00
 092338,0.00007362,-0.00351531,-0.01240523,-0.01365339,-0.01814901,-0.0
 0556604,0.00191780,-0.00368863,0.01366264,-0.00202783,0.07571954,-0.00
 420968,0.00543781,-0.00330083,-0.00508804,-0.00691981,-0.00389093,0.00
 226087,-0.00130125,0.00176689,-0.00404109,0.00512083,-0.00083467,-0.00
 405673,0.00138068,0.00068022,0.07666956,-0.00107517,-0.00000917,-0.001
 33251,-0.00893716,-0.04161559,-0.00577840,0.00751521,-0.00766818,0.002
 21420,0.00567631,-0.01071585,0.01514202,-0.00038624,-0.00139519,-0.000
 43238,-0.00984257,0.07018683,0.00001583,-0.00469149,0.00186026,-0.0038
 1261,-0.00178660,-0.00172321,0.00164795,0.00110329,-0.00263939,-0.0036
 5790,0.01554318,-0.01466748,-0.00111658,0.00305685,-0.00341176,0.00246
 710,-0.01055829,0.04356260,-0.01237761,0.01580702,-0.00681466,-0.00247
 209,-0.00367815,0.00537590,-0.00221770,0.00152407,-0.00151022,-0.00245
 361,-0.00603563,0.00338299,0.00108077,0.00163409,-0.00275354,-0.033516
 74,0.00563657,0.01851554,0.05102907,0.01468346,-0.01824146,0.01477651,
 0.00029804,-0.00376096,0.00280749,-0.00350863,-0.00463527,0.00555481,-
 0.00033332,0.00174014,-0.00368837,-0.00130331,0.00012203,0.00119259,0.
 00660608,-0.00174612,0.00050683,-0.00845113,0.06139750,-0.00653197,0.0
 1775913,-0.01285814,-0.00040248,-0.00077615,0.00031474,-0.00112206,0.0
 0026357,0.00051103,0.00008487,0.00244573,-0.00518437,0.00228962,0.0032
 2006,-0.00361741,0.02011225,0.00042267,-0.01583912,-0.01420156,-0.0162
 7950,0.06422454,-0.02088779,-0.00842276,-0.01469758,-0.02915135,0.0046
 2194,0.01496598,0.00375059,-0.00146660,0.00087022,0.00019048,0.0043806
 8,0.00511014,0.00002291,-0.00232352,-0.00266885,-0.00093402,0.00167097
 ,0.00319548,-0.00149970,-0.00658411,-0.00104306,0.05029565,-0.00757828
 ,-0.00128042,-0.00761933,0.00171509,-0.00006407,-0.00280181,-0.0001067
 0,-0.00338667,0.00321468,0.00005134,-0.00171459,0.00142023,-0.00026468
 ,-0.00235293,0.00087301,-0.00005054,-0.00322391,-0.00420615,-0.0049135
 1,-0.02999611,-0.00257379,0.00914728,0.04330444,-0.01364290,-0.0092389
 3,-0.01674078,0.01474774,-0.00418365,-0.01399889,0.00160102,0.00148319
 ,-0.01601845,-0.00011013,-0.00182502,-0.00510401,0.00079449,-0.0011078
 2,-0.00326763,-0.00060436,0.00081091,-0.00018484,-0.00090959,-0.003113
 68,-0.00535691,-0.00201460,0.01814978,0.06135844,-0.00479624,0.0054630
 2,0.00086144,0.00019446,-0.00827863,-0.00112569,-0.00462374,0.00150948
 ,0.00088725,-0.00611918,-0.00933027,0.00212169,-0.00042466,0.00397056,
 -0.00286966,-0.02708414,-0.00025793,-0.01725483,0.00242760,-0.00140707
 ,0.00081438,-0.00178676,0.00200001,0.00013833,0.04221265,0.00564868,-0
 .00894685,-0.00608421,-0.00055155,-0.00109600,-0.00082266,-0.00253454,
 -0.00715017,-0.00275275,-0.00728087,-0.00526629,-0.00096415,0.00136588
 ,-0.02814643,0.01084810,-0.00043122,-0.00381282,0.00103238,-0.00152333
 ,-0.00487976,-0.00448172,-0.00102389,-0.00128574,-0.00097477,0.0063308
 4,0.06058406,0.00124799,-0.00804961,-0.00194788,0.00099198,-0.00270334
 ,-0.00366667,0.00127697,0.00119220,-0.00139024,0.00401512,0.00122729,-
 0.00311210,-0.00276086,0.01283521,-0.00681492,-0.01639568,-0.00048822,
 -0.00695705,-0.00108487,-0.00175668,-0.02219435,-0.00371774,-0.0064566
 3,-0.00068692,0.01642708,0.00419978,0.04677012\\0.00018247,-0.00017321
 ,0.00001725,-0.00019387,-0.00004139,0.00004875,0.00012235,0.00006511,-
 0.00000595,0.00004655,-0.00003779,-0.00019846,-0.00005965,0.00004338,-
 0.00007676,-0.00010010,0.00006612,0.00010529,-0.00005450,0.00012034,-0
 .00005355,0.00001677,-0.00003062,0.00014480,0.00003998,-0.00001196,0.0
 0001863\\\@


 A MAN THINKING OR WORKING IS ALWAYS ALONE, 
 LET HIM BE WHERE HE WILL.

                                    -- THOREAU
 Job cpu time:       0 days  7 hours 27 minutes 18.3 seconds.
 File lengths (MBytes):  RWF=    299 Int=      0 D2E=      0 Chk=     16 Scr=      1
 Normal termination of Gaussian 09 at Tue Mar  6 16:55:52 2018.
