 Entering Gaussian System, Link 0=/share/apps/mg09/g09
 Initial command:
 /share/apps//mg09/l1.exe "/state/partition1/gauss_tmp/Gau-18938.inp" -scrdir="/state/partition1/gauss_tmp/"
 Entering Link 1 = /share/apps//mg09/l1.exe PID=     18949.
  
 Copyright (c) 1988,1990,1992,1993,1995,1998,2003,2009,2013,
            Gaussian, Inc.  All Rights Reserved.
  
 This is part of the Gaussian(R) 09 program.  It is based on
 the Gaussian(R) 03 system (copyright 2003, Gaussian, Inc.),
 the Gaussian(R) 98 system (copyright 1998, Gaussian, Inc.),
 the Gaussian(R) 94 system (copyright 1995, Gaussian, Inc.),
 the Gaussian 92(TM) system (copyright 1992, Gaussian, Inc.),
 the Gaussian 90(TM) system (copyright 1990, Gaussian, Inc.),
 the Gaussian 88(TM) system (copyright 1988, Gaussian, Inc.),
 the Gaussian 86(TM) system (copyright 1986, Carnegie Mellon
 University), and the Gaussian 82(TM) system (copyright 1983,
 Carnegie Mellon University). Gaussian is a federally registered
 trademark of Gaussian, Inc.
  
 This software contains proprietary and confidential information,
 including trade secrets, belonging to Gaussian, Inc.
  
 This software is provided under written license and may be
 used, copied, transmitted, or stored only in accord with that
 written license.
  
 The following legend is applicable only to US Government
 contracts under FAR:
  
                    RESTRICTED RIGHTS LEGEND
  
 Use, reproduction and disclosure by the US Government is
 subject to restrictions as set forth in subparagraphs (a)
 and (c) of the Commercial Computer Software - Restricted
 Rights clause in FAR 52.227-19.
  
 Gaussian, Inc.
 340 Quinnipiac St., Bldg. 40, Wallingford CT 06492
  
  
 ---------------------------------------------------------------
 Warning -- This program may not be used in any manner that
 competes with the business of Gaussian, Inc. or will provide
 assistance to any competitor of Gaussian, Inc.  The licensee
 of this program is prohibited from giving any competitor of
 Gaussian, Inc. access to this program.  By using this program,
 the user acknowledges that Gaussian, Inc. is engaged in the
 business of creating and licensing software in the field of
 computational chemistry and represents and warrants to the
 licensee that it is not a competitor of Gaussian, Inc. and that
 it will not use this program in any manner prohibited above.
 ---------------------------------------------------------------
  

 Cite this work as:
 Gaussian 09, Revision D.01,
 M. J. Frisch, G. W. Trucks, H. B. Schlegel, G. E. Scuseria, 
 M. A. Robb, J. R. Cheeseman, G. Scalmani, V. Barone, B. Mennucci, 
 G. A. Petersson, H. Nakatsuji, M. Caricato, X. Li, H. P. Hratchian, 
 A. F. Izmaylov, J. Bloino, G. Zheng, J. L. Sonnenberg, M. Hada, 
 M. Ehara, K. Toyota, R. Fukuda, J. Hasegawa, M. Ishida, T. Nakajima, 
 Y. Honda, O. Kitao, H. Nakai, T. Vreven, J. A. Montgomery, Jr., 
 J. E. Peralta, F. Ogliaro, M. Bearpark, J. J. Heyd, E. Brothers, 
 K. N. Kudin, V. N. Staroverov, T. Keith, R. Kobayashi, J. Normand, 
 K. Raghavachari, A. Rendell, J. C. Burant, S. S. Iyengar, J. Tomasi, 
 M. Cossi, N. Rega, J. M. Millam, M. Klene, J. E. Knox, J. B. Cross, 
 V. Bakken, C. Adamo, J. Jaramillo, R. Gomperts, R. E. Stratmann, 
 O. Yazyev, A. J. Austin, R. Cammi, C. Pomelli, J. W. Ochterski, 
 R. L. Martin, K. Morokuma, V. G. Zakrzewski, G. A. Voth, 
 P. Salvador, J. J. Dannenberg, S. Dapprich, A. D. Daniels, 
 O. Farkas, J. B. Foresman, J. V. Ortiz, J. Cioslowski, 
 and D. J. Fox, Gaussian, Inc., Wallingford CT, 2013.
 
 ******************************************
 Gaussian 09:  ES64L-G09RevD.01 24-Apr-2013
                 6-Mar-2018 
 ******************************************
 %NProcShared=4
 Will use up to    4 processors via shared memory.
 %LindaWorkers=compute-0-1
 %chk=Isomer_22.chk
 %NProc=4
 Will use up to    4 processors via shared memory.
 %mem=4GB
 SetLPE:  input flags=" -vv -opt "Tsnet.Node.lindarsharg: ssh" "
 SetLPE:    new flags=" -vv -opt "Tsnet.Node.lindarsharg: ssh"  -nodelist 'compute-0-1.local'"
 Will use up to    1 processors via Linda.
 ----------------------------------------------------------------------
 #p PBE1PBE/Def2TZVP scf=(maxcycle=768) opt=(cartesian,maxcycle=512) fr
 eq
 ----------------------------------------------------------------------
 1/6=512,10=7,14=-1,18=10,26=3,38=1/1,3;
 2/12=2,17=6,18=5,29=2,40=1/2;
 3/5=44,7=101,11=2,16=1,25=1,30=1,71=1,74=-13/1,2,3;
 4//1;
 5/5=2,7=768,38=5/2;
 6/7=2,8=2,9=2,10=2,28=1/1;
 7/7=1,29=1/1,2,3,16;
 1/6=512,10=7,14=-1,18=10,26=3/3(2);
 2/29=1/2;
 99/12=1/99;
 2/29=1/2;
 3/5=44,7=101,11=2,16=1,25=1,30=1,71=1,74=-13/1,2,3;
 4/5=5,16=3,69=1/1;
 5/5=2,7=768,38=5/2;
 7/7=1/1,2,3,16;
 1/6=512,14=-1,18=10,26=3/3(-5);
 2/29=1/2;
 6/7=2,8=2,9=2,10=2,19=2,28=1/1;
 99/9=1,12=1/99;
 Leave Link    1 at Tue Mar  6 11:56:29 2018, MaxMem=   536870912 cpu:         0.6
 (Enter /share/apps//mg09/l101.exe)
 ---------------------
 01Final_coords.xyz_22
 ---------------------
 Symbolic Z-matrix:
 Charge =  0 Multiplicity = 1
 32                    0.1546    2.26209   1.72171 
 32                    0.2189   -2.32015   1.35534 
 32                   -1.09766  -0.11409   2.40579 
 83                    1.98499  -1.34833  -0.76486 
 83                   -2.16568  -1.4362    0.0069 
 50                   -0.47094  -0.49606  -2.37084 
 50                    1.89068  -0.04588   2.0375 
 83                   -1.75007   1.55055  -0.29177 
 83                    1.3547    1.62682  -0.86334 
 
 NAtoms=      9 NQM=        9 NQMF=       0 NMMI=      0 NMMIF=      0
                NMic=       0 NMicF=      0.
                    Isotopes and Nuclear Properties:
 (Nuclear quadrupole moments (NQMom) in fm**2, nuclear magnetic moments (NMagM)
  in nuclear magnetons)

  Atom         1           2           3           4           5           6           7           8           9
 IAtWgt=          74          74          74         209         209         118         118         209         209
 AtmWgt=  73.9211788  73.9211788  73.9211788 208.9804000 208.9804000 117.9018000 117.9018000 208.9804000 208.9804000
 NucSpn=           0           0           0           9           9           0           0           9           9
 AtZEff=   0.0000000   0.0000000   0.0000000   0.0000000   0.0000000   0.0000000   0.0000000   0.0000000   0.0000000
 NQMom=    0.0000000   0.0000000   0.0000000 -51.6000000 -51.6000000   0.0000000   0.0000000 -51.6000000 -51.6000000
 NMagM=    0.0000000   0.0000000   0.0000000   4.1106000   4.1106000   0.0000000   0.0000000   4.1106000   4.1106000
 AtZNuc=  32.0000000  32.0000000  32.0000000  83.0000000  83.0000000  50.0000000  50.0000000  83.0000000  83.0000000
 Leave Link  101 at Tue Mar  6 11:56:38 2018, MaxMem=   536870912 cpu:         0.5
 (Enter /share/apps//mg09/l103.exe)

 GradGradGradGradGradGradGradGradGradGradGradGradGradGradGradGradGradGrad
 Berny optimization.
 Initialization pass.
 No Z-matrix variables, so optimization will use Cartesian coordinates.
 Trust Radius=3.00D-01 FncErr=1.00D-07 GrdErr=1.00D-06
 Number of steps in this run=    100 maximum allowed number of steps=    100.
 GradGradGradGradGradGradGradGradGradGradGradGradGradGradGradGradGradGrad

 Leave Link  103 at Tue Mar  6 11:56:54 2018, MaxMem=   536870912 cpu:         0.1
 (Enter /share/apps//mg09/l202.exe)
 ---------------------------------------------------------------------------------------------------
                            Z-MATRIX (ANGSTROMS AND DEGREES)
   CD    Cent   Atom    N1       Length/X        N2       Alpha/Y        N3        Beta/Z          J
 ---------------------------------------------------------------------------------------------------
      1      1  Ge       0   0.154595          2.262095          1.721708
      2      2  Ge       0   0.218895         -2.320151          1.355343
      3      3  Ge       0  -1.097663         -0.114086          2.405790
      4      4  Bi       0   1.984986         -1.348334         -0.764855
      5      5  Bi       0  -2.165685         -1.436196          0.006902
      6      6  Sn       0  -0.470940         -0.496060         -2.370839
      7      7  Sn       0   1.890677         -0.045881          2.037500
      8      8  Bi       0  -1.750067          1.550545         -0.291770
      9      9  Bi       0   1.354701          1.626822         -0.863336
 ---------------------------------------------------------------------------------------------------
                         Z-Matrix orientation:                         
 ---------------------------------------------------------------------
 Center     Atomic      Atomic             Coordinates (Angstroms)
 Number     Number       Type             X           Y           Z
 ---------------------------------------------------------------------
      1         32           0        0.154595    2.262095    1.721708
      2         32           0        0.218895   -2.320151    1.355343
      3         32           0       -1.097663   -0.114086    2.405790
      4         83           0        1.984986   -1.348334   -0.764855
      5         83           0       -2.165685   -1.436196    0.006902
      6         50           0       -0.470940   -0.496060   -2.370839
      7         50           0        1.890677   -0.045881    2.037500
      8         83           0       -1.750067    1.550545   -0.291770
      9         83           0        1.354701    1.626822   -0.863336
 ---------------------------------------------------------------------
                    Distance matrix (angstroms):
                    1          2          3          4          5
     1  Ge   0.000000
     2  Ge   4.597318   0.000000
     3  Ge   2.771706   2.775516   0.000000
     4  Bi   4.750634   2.925533   4.591196   0.000000
     5  Bi   4.690588   2.878522   2.939951   4.222724   0.000000
     6  Sn   4.974701   4.205664   4.832688   3.055671   3.067518
     7  Sn   2.905247   2.903876   3.011721   3.091678   4.744510
     8  Bi   2.861492   4.644575   3.236272   4.751624   3.030275
     9  Bi   2.919979   4.668103   4.442075   3.042780   4.746842
                    6          7          8          9
     6  Sn   0.000000
     7  Sn   5.021290   0.000000
     8  Bi   3.185480   4.607504   0.000000
     9  Bi   3.179962   3.391173   3.157862   0.000000
 Stoichiometry    Bi4Ge3Sn2
 Framework group  C1[X(Bi4Ge3Sn2)]
 Deg. of freedom    21
 Full point group                 C1      NOp   1
 Largest Abelian subgroup         C1      NOp   1
 Largest concise Abelian subgroup C1      NOp   1
                         Standard orientation:                         
 ---------------------------------------------------------------------
 Center     Atomic      Atomic             Coordinates (Angstroms)
 Number     Number       Type             X           Y           Z
 ---------------------------------------------------------------------
      1         32           0        0.154596    2.262095    1.721708
      2         32           0        0.218894   -2.320151    1.355343
      3         32           0       -1.097663   -0.114085    2.405790
      4         83           0        1.984985   -1.348335   -0.764855
      5         83           0       -2.165686   -1.436195    0.006902
      6         50           0       -0.470940   -0.496060   -2.370839
      7         50           0        1.890677   -0.045882    2.037500
      8         83           0       -1.750066    1.550546   -0.291770
      9         83           0        1.354702    1.626822   -0.863336
 ---------------------------------------------------------------------
 Rotational constants (GHZ):      0.1030936      0.0902680      0.0836322
 Leave Link  202 at Tue Mar  6 11:56:57 2018, MaxMem=   536870912 cpu:         0.1
 (Enter /share/apps//mg09/l301.exe)
 Standard basis: def2TZVP (5D, 7F)
 Ernie: Thresh=  0.10000D-02 Tol=  0.10000D-05 Strict=F.
 There are   519 symmetry adapted cartesian basis functions of A   symmetry.
 There are   444 symmetry adapted basis functions of A   symmetry.
   444 basis functions,   963 primitive gaussians,   519 cartesian basis functions
   116 alpha electrons      116 beta electrons
       nuclear repulsion energy      3556.4517556104 Hartrees.
 IExCor= 1009 DFT=T Ex+Corr=PBE1PBE ExCW=0 ScaHFX=  0.250000
 ScaDFX=  0.750000  0.750000  1.000000  1.000000 ScalE2=  1.000000  1.000000
 IRadAn=      0 IRanWt=     -1 IRanGd=            0 ICorTp=0 IEmpDi=  4
 NAtoms=    9 NActive=    9 NUniq=    9 SFac= 1.00D+00 NAtFMM=   60 NAOKFM=F Big=F
 Integral buffers will be    131072 words long.
 Raffenetti 2 integral format.
 Two-electron integral symmetry is turned on.
 Leave Link  301 at Tue Mar  6 11:57:12 2018, MaxMem=   536870912 cpu:         0.4
 (Enter /share/apps//mg09/l302.exe)
 NPDir=0 NMtPBC=     1 NCelOv=     1 NCel=       1 NClECP=     1 NCelD=      1
         NCelK=      1 NCelE2=     1 NClLst=     1 CellRange=     0.0.
 One-electron integrals computed using PRISM.
   1 Symmetry operations used in ECPInt.
 ECPInt:  NShTT=   10440 NPrTT=   41973 LenC2=    9673 LenP2D=   27462.
 LDataN:  DoStor=T MaxTD1= 8 Len=  415
 NBasis=   444 RedAO= T EigKep=  1.53D-03  NBF=   444
 NBsUse=   444 1.00D-06 EigRej= -1.00D+00 NBFU=   444
 Precomputing XC quadrature grid using
 IXCGrd= 4 IRadAn=           0 IRanWt=          -1 IRanGd=           0 AccXCQ= 0.00D+00.
 Defaulting to unpruned grid for atomic number  83.
 Defaulting to unpruned grid for atomic number  50.
 Generated NRdTot=       0 NPtTot=           0 NUsed=           0 NTot=          32
 NSgBfM=   504   504   504   504   504 MxSgAt=     9 MxSgA2=     9.
 Leave Link  302 at Tue Mar  6 11:57:32 2018, MaxMem=   536870912 cpu:        31.7
 (Enter /share/apps//mg09/l303.exe)
 DipDrv:  MaxL=1.
 Leave Link  303 at Tue Mar  6 11:57:46 2018, MaxMem=   536870912 cpu:         0.5
 (Enter /share/apps//mg09/l401.exe)
 ExpMin= 4.62D-02 ExpMax= 4.66D+05 ExpMxC= 4.50D+03 IAcc=2 IRadAn=         4 AccDes= 0.00D+00
 Harris functional with IExCor= 1009 and IRadAn=       4 diagonalized for initial guess.
 HarFok:  IExCor= 1009 AccDes= 0.00D+00 IRadAn=         4 IDoV= 1 UseB2=F ITyADJ=14
 ICtDFT=  3500011 ScaDFX=  1.000000  1.000000  1.000000  1.000000
 Defaulting to unpruned grid for atomic number  83.
 Defaulting to unpruned grid for atomic number  83.
 Defaulting to unpruned grid for atomic number  83.
 Defaulting to unpruned grid for atomic number  83.
 FoFCou: FMM=F IPFlag=           0 FMFlag=      100000 FMFlg1=           0
         NFxFlg=           0 DoJE=T BraDBF=F KetDBF=T FulRan=T
         wScrn=  0.000000 ICntrl=     500 IOpCl=  0 I1Cent=   200000004 NGrid=           0
         NMat0=    1 NMatS0=      1 NMatT0=    0 NMatD0=    1 NMtDS0=    0 NMtDT0=    0
 Petite list used in FoFCou.
 Harris En= -7518.61500226529    
 JPrj=0 DoOrth=F DoCkMO=F.
 Leave Link  401 at Tue Mar  6 11:57:59 2018, MaxMem=   536870912 cpu:        13.2
 (Enter /share/apps//mg09/l502.exe)
 Closed shell SCF:
 Using DIIS extrapolation, IDIIS=  1040.
 Integral symmetry usage will be decided dynamically.
 IVT=     1410107 IEndB=     1410107 NGot=   536870912 MDV=   536322046
 LenX=   536322046 LenY=   536052166
 Requested convergence on RMS density matrix=1.00D-08 within 768 cycles.
 Requested convergence on MAX density matrix=1.00D-06.
 Requested convergence on             energy=1.00D-06.
 No special actions if energy rises.
 Fock matrices will be formed incrementally for  20 cycles.

 Cycle   1  Pass 1  IDiag  1:
 FoFJK:  IHMeth= 1 ICntrl=       0 DoSepK=F KAlg= 0 I1Cent=   0 FoldK=F
 IRaf= 880000000 NMat=   1 IRICut=       1 DoRegI=T DoRafI=F ISym2E= 0.
 FoFCou: FMM=F IPFlag=           0 FMFlag=      100000 FMFlg1=           0
         NFxFlg=           0 DoJE=F BraDBF=F KetDBF=F FulRan=T
         wScrn=  0.000000 ICntrl=       0 IOpCl=  0 I1Cent=           0 NGrid=           0
         NMat0=    1 NMatS0=      1 NMatT0=    0 NMatD0=    1 NMtDS0=    0 NMtDT0=    0
 Symmetry not used in FoFCou.
 Defaulting to unpruned grid for atomic number  83.
 Defaulting to unpruned grid for atomic number  83.
 Defaulting to unpruned grid for atomic number  83.
 Defaulting to unpruned grid for atomic number  83.
 E= -7517.22288762597    
 DIIS: error= 2.92D-02 at cycle   1 NSaved=   1.
 NSaved= 1 IEnMin= 1 EnMin= -7517.22288762597     IErMin= 1 ErrMin= 2.92D-02
 ErrMax= 2.92D-02  0.00D+00 EMaxC= 1.00D-01 BMatC= 1.47D+00 BMatP= 1.47D+00
 IDIUse=3 WtCom= 7.08D-01 WtEn= 2.92D-01
 Coeff-Com:  0.100D+01
 Coeff-En:   0.100D+01
 Coeff:      0.100D+01
 Gap=     0.137 Goal=   None    Shift=    0.000
 GapD=    0.137 DampG=1.000 DampE=0.500 DampFc=0.5000 IDamp=-1.
 Damping current iteration by 5.00D-01
 RMSDP=5.92D-03 MaxDP=2.49D-01              OVMax= 9.81D-01

 Cycle   2  Pass 1  IDiag  1:
 RMSU=  2.96D-03    CP:  1.01D+00
 E= -7516.90484908512     Delta-E=        0.318038540850 Rises=F Damp=T
 DIIS: error= 1.43D-02 at cycle   2 NSaved=   2.
 NSaved= 2 IEnMin= 1 EnMin= -7517.22288762597     IErMin= 2 ErrMin= 1.43D-02
 ErrMax= 1.43D-02  0.00D+00 EMaxC= 1.00D-01 BMatC= 3.28D-01 BMatP= 1.47D+00
 IDIUse=3 WtCom= 8.57D-01 WtEn= 1.43D-01
 Coeff-Com:  0.176D+00 0.824D+00
 Coeff-En:   0.646D+00 0.354D+00
 Coeff:      0.243D+00 0.757D+00
 Gap=    -0.214 Goal=   None    Shift=    0.000
 RMSDP=4.16D-03 MaxDP=2.11D-01 DE= 3.18D-01 OVMax= 8.30D-01

 Cycle   3  Pass 1  IDiag  1:
 RMSU=  3.26D-03    CP:  1.00D+00  1.26D-01
 E= -7515.45132383783     Delta-E=        1.453525247285 Rises=F Damp=F
 DIIS: error= 4.32D-02 at cycle   3 NSaved=   3.
 NSaved= 3 IEnMin= 1 EnMin= -7517.22288762597     IErMin= 2 ErrMin= 1.43D-02
 ErrMax= 4.32D-02  0.00D+00 EMaxC= 1.00D-01 BMatC= 1.81D+00 BMatP= 3.28D-01
 IDIUse=2 WtCom= 0.00D+00 WtEn= 1.00D+00
 EnCoef did    10 forward-backward iterations
 Coeff-En:   0.595D+00 0.373D+00 0.315D-01
 Coeff:      0.595D+00 0.373D+00 0.315D-01
 Gap=     0.189 Goal=   None    Shift=    0.000
 RMSDP=3.52D-03 MaxDP=1.51D-01 DE= 1.45D+00 OVMax= 4.11D-01

 Cycle   4  Pass 1  IDiag  1:
 RMSU=  1.84D-03    CP:  1.01D+00  7.52D-01  2.79D-01
 E= -7517.65227185188     Delta-E=       -2.200948014051 Rises=F Damp=F
 DIIS: error= 1.22D-02 at cycle   4 NSaved=   4.
 NSaved= 4 IEnMin= 4 EnMin= -7517.65227185188     IErMin= 4 ErrMin= 1.22D-02
 ErrMax= 1.22D-02  0.00D+00 EMaxC= 1.00D-01 BMatC= 3.67D-01 BMatP= 3.28D-01
 IDIUse=2 WtCom= 0.00D+00 WtEn= 1.00D+00
 Coeff-En:   0.190D+00 0.000D+00 0.000D+00 0.810D+00
 Coeff:      0.190D+00 0.000D+00 0.000D+00 0.810D+00
 Gap=     0.109 Goal=   None    Shift=    0.000
 RMSDP=2.00D-03 MaxDP=8.45D-02 DE=-2.20D+00 OVMax= 1.58D-01

 Cycle   5  Pass 1  IDiag  1:
 RMSU=  1.14D-03    CP:  1.00D+00  4.57D-01 -3.89D-02  4.98D-01
 E= -7517.62010249052     Delta-E=        0.032169361364 Rises=F Damp=F
 DIIS: error= 1.24D-02 at cycle   5 NSaved=   5.
 NSaved= 5 IEnMin= 4 EnMin= -7517.65227185188     IErMin= 4 ErrMin= 1.22D-02
 ErrMax= 1.24D-02  0.00D+00 EMaxC= 1.00D-01 BMatC= 2.58D-01 BMatP= 3.28D-01
 IDIUse=3 WtCom= 8.76D-01 WtEn= 1.24D-01
 Coeff-Com:  0.173D+00-0.773D-01-0.128D-01 0.564D+00 0.353D+00
 Coeff-En:   0.000D+00 0.000D+00 0.000D+00 0.541D+00 0.459D+00
 Coeff:      0.152D+00-0.677D-01-0.112D-01 0.561D+00 0.366D+00
 Gap=     0.127 Goal=   None    Shift=    0.000
 RMSDP=1.28D-03 MaxDP=6.80D-02 DE= 3.22D-02 OVMax= 1.24D-01

 Cycle   6  Pass 1  IDiag  1:
 RMSU=  4.40D-04    CP:  1.00D+00  4.98D-01  1.36D-01  6.98D-01  1.35D-01
 E= -7517.79854512326     Delta-E=       -0.178442632741 Rises=F Damp=F
 DIIS: error= 2.83D-03 at cycle   6 NSaved=   6.
 NSaved= 6 IEnMin= 6 EnMin= -7517.79854512326     IErMin= 6 ErrMin= 2.83D-03
 ErrMax= 2.83D-03  0.00D+00 EMaxC= 1.00D-01 BMatC= 1.80D-02 BMatP= 2.58D-01
 IDIUse=3 WtCom= 9.72D-01 WtEn= 2.83D-02
 Coeff-Com:  0.447D-01-0.422D-01 0.419D-02 0.262D+00 0.260D+00 0.471D+00
 Coeff-En:   0.000D+00 0.000D+00 0.000D+00 0.000D+00 0.766D-01 0.923D+00
 Coeff:      0.434D-01-0.410D-01 0.407D-02 0.255D+00 0.255D+00 0.484D+00
 Gap=     0.119 Goal=   None    Shift=    0.000
 RMSDP=4.46D-04 MaxDP=1.72D-02 DE=-1.78D-01 OVMax= 5.35D-02

 Cycle   7  Pass 1  IDiag  1:
 RMSU=  2.51D-04    CP:  1.00D+00  5.04D-01  1.12D-01  6.86D-01  3.61D-01
                    CP:  4.35D-01
 E= -7517.80782844662     Delta-E=       -0.009283323361 Rises=F Damp=F
 DIIS: error= 1.94D-03 at cycle   7 NSaved=   7.
 NSaved= 7 IEnMin= 7 EnMin= -7517.80782844662     IErMin= 7 ErrMin= 1.94D-03
 ErrMax= 1.94D-03  0.00D+00 EMaxC= 1.00D-01 BMatC= 5.76D-03 BMatP= 1.80D-02
 IDIUse=3 WtCom= 9.81D-01 WtEn= 1.94D-02
 Coeff-Com:  0.207D-01-0.336D-01 0.278D-02 0.148D+00 0.157D+00 0.383D+00
 Coeff-Com:  0.322D+00
 Coeff-En:   0.000D+00 0.000D+00 0.000D+00 0.000D+00 0.000D+00 0.351D+00
 Coeff-En:   0.649D+00
 Coeff:      0.203D-01-0.330D-01 0.273D-02 0.145D+00 0.154D+00 0.383D+00
 Coeff:      0.328D+00
 Gap=     0.121 Goal=   None    Shift=    0.000
 RMSDP=2.32D-04 MaxDP=8.93D-03 DE=-9.28D-03 OVMax= 2.86D-02

 Cycle   8  Pass 1  IDiag  1:
 RMSU=  7.46D-05    CP:  1.00D+00  5.06D-01  1.14D-01  6.86D-01  3.15D-01
                    CP:  6.23D-01  2.21D-01
 E= -7517.81443942930     Delta-E=       -0.006610982675 Rises=F Damp=F
 DIIS: error= 8.00D-04 at cycle   8 NSaved=   8.
 NSaved= 8 IEnMin= 8 EnMin= -7517.81443942930     IErMin= 8 ErrMin= 8.00D-04
 ErrMax= 8.00D-04  0.00D+00 EMaxC= 1.00D-01 BMatC= 7.02D-04 BMatP= 5.76D-03
 IDIUse=3 WtCom= 9.92D-01 WtEn= 8.00D-03
 Coeff-Com:  0.749D-02-0.165D-01 0.335D-02 0.449D-01 0.454D-01 0.165D+00
 Coeff-Com:  0.253D+00 0.498D+00
 Coeff-En:   0.000D+00 0.000D+00 0.000D+00 0.000D+00 0.000D+00 0.000D+00
 Coeff-En:   0.125D+00 0.875D+00
 Coeff:      0.743D-02-0.164D-01 0.333D-02 0.445D-01 0.450D-01 0.163D+00
 Coeff:      0.252D+00 0.501D+00
 Gap=     0.120 Goal=   None    Shift=    0.000
 RMSDP=6.75D-05 MaxDP=3.27D-03 DE=-6.61D-03 OVMax= 8.85D-03

 Cycle   9  Pass 1  IDiag  1:
 RMSU=  2.84D-05    CP:  1.00D+00  5.05D-01  1.23D-01  6.89D-01  3.17D-01
                    CP:  5.90D-01  3.97D-01  6.45D-01
 E= -7517.81524684321     Delta-E=       -0.000807413917 Rises=F Damp=F
 DIIS: error= 9.23D-05 at cycle   9 NSaved=   9.
 NSaved= 9 IEnMin= 9 EnMin= -7517.81524684321     IErMin= 9 ErrMin= 9.23D-05
 ErrMax= 9.23D-05  0.00D+00 EMaxC= 1.00D-01 BMatC= 2.49D-05 BMatP= 7.02D-04
 IDIUse=1 WtCom= 1.00D+00 WtEn= 0.00D+00
 Coeff-Com:  0.274D-02-0.582D-02 0.490D-03 0.284D-02-0.359D-02 0.186D-01
 Coeff-Com:  0.542D-01 0.194D+00 0.737D+00
 Coeff:      0.274D-02-0.582D-02 0.490D-03 0.284D-02-0.359D-02 0.186D-01
 Coeff:      0.542D-01 0.194D+00 0.737D+00
 Gap=     0.121 Goal=   None    Shift=    0.000
 RMSDP=1.94D-05 MaxDP=1.73D-03 DE=-8.07D-04 OVMax= 1.93D-03

 Cycle  10  Pass 1  IDiag  1:
 RMSU=  1.40D-05    CP:  1.00D+00  5.03D-01  1.23D-01  6.88D-01  3.11D-01
                    CP:  5.99D-01  3.97D-01  7.30D-01  7.81D-01
 E= -7517.81527046763     Delta-E=       -0.000023624416 Rises=F Damp=F
 DIIS: error= 5.55D-05 at cycle  10 NSaved=  10.
 NSaved=10 IEnMin=10 EnMin= -7517.81527046763     IErMin=10 ErrMin= 5.55D-05
 ErrMax= 5.55D-05  0.00D+00 EMaxC= 1.00D-01 BMatC= 6.89D-06 BMatP= 2.49D-05
 IDIUse=1 WtCom= 1.00D+00 WtEn= 0.00D+00
 Coeff-Com:  0.958D-03-0.201D-02 0.337D-03-0.264D-02-0.631D-02-0.587D-02
 Coeff-Com:  0.317D-02 0.607D-01 0.456D+00 0.496D+00
 Coeff:      0.958D-03-0.201D-02 0.337D-03-0.264D-02-0.631D-02-0.587D-02
 Coeff:      0.317D-02 0.607D-01 0.456D+00 0.496D+00
 Gap=     0.120 Goal=   None    Shift=    0.000
 RMSDP=7.50D-06 MaxDP=4.96D-04 DE=-2.36D-05 OVMax= 7.32D-04

 Cycle  11  Pass 1  IDiag  1:
 RMSU=  3.29D-06    CP:  1.00D+00  5.03D-01  1.24D-01  6.87D-01  3.11D-01
                    CP:  6.01D-01  3.96D-01  7.18D-01  9.00D-01  6.14D-01
 E= -7517.81527770030     Delta-E=       -0.000007232666 Rises=F Damp=F
 DIIS: error= 1.51D-05 at cycle  11 NSaved=  11.
 NSaved=11 IEnMin=11 EnMin= -7517.81527770030     IErMin=11 ErrMin= 1.51D-05
 ErrMax= 1.51D-05  0.00D+00 EMaxC= 1.00D-01 BMatC= 4.22D-07 BMatP= 6.89D-06
 IDIUse=1 WtCom= 1.00D+00 WtEn= 0.00D+00
 Coeff-Com:  0.324D-03-0.630D-03 0.140D-03-0.126D-02-0.251D-02-0.527D-02
 Coeff-Com: -0.519D-02 0.709D-02 0.133D+00 0.223D+00 0.651D+00
 Coeff:      0.324D-03-0.630D-03 0.140D-03-0.126D-02-0.251D-02-0.527D-02
 Coeff:     -0.519D-02 0.709D-02 0.133D+00 0.223D+00 0.651D+00
 Gap=     0.120 Goal=   None    Shift=    0.000
 RMSDP=2.53D-06 MaxDP=1.36D-04 DE=-7.23D-06 OVMax= 2.83D-04

 Cycle  12  Pass 1  IDiag  1:
 RMSU=  2.06D-06    CP:  1.00D+00  5.03D-01  1.24D-01  6.87D-01  3.11D-01
                    CP:  6.00D-01  3.96D-01  7.24D-01  9.17D-01  6.46D-01
                    CP:  6.84D-01
 E= -7517.81527780532     Delta-E=       -0.000000105021 Rises=F Damp=F
 DIIS: error= 1.94D-05 at cycle  12 NSaved=  12.
 NSaved=12 IEnMin=12 EnMin= -7517.81527780532     IErMin=11 ErrMin= 1.51D-05
 ErrMax= 1.94D-05  0.00D+00 EMaxC= 1.00D-01 BMatC= 2.72D-07 BMatP= 4.22D-07
 IDIUse=1 WtCom= 1.00D+00 WtEn= 0.00D+00
 Coeff-Com:  0.175D-03-0.323D-03 0.735D-04-0.613D-03-0.122D-02-0.355D-02
 Coeff-Com: -0.462D-02-0.195D-02 0.478D-01 0.115D+00 0.505D+00 0.344D+00
 Coeff:      0.175D-03-0.323D-03 0.735D-04-0.613D-03-0.122D-02-0.355D-02
 Coeff:     -0.462D-02-0.195D-02 0.478D-01 0.115D+00 0.505D+00 0.344D+00
 Gap=     0.120 Goal=   None    Shift=    0.000
 RMSDP=1.77D-06 MaxDP=7.33D-05 DE=-1.05D-07 OVMax= 2.28D-04

 Cycle  13  Pass 1  IDiag  1:
 RMSU=  7.88D-07    CP:  1.00D+00  5.03D-01  1.24D-01  6.87D-01  3.11D-01
                    CP:  6.00D-01  3.96D-01  7.24D-01  9.19D-01  6.49D-01
                    CP:  8.50D-01  2.85D-01
 E= -7517.81527812949     Delta-E=       -0.000000324169 Rises=F Damp=F
 DIIS: error= 7.53D-06 at cycle  13 NSaved=  13.
 NSaved=13 IEnMin=13 EnMin= -7517.81527812949     IErMin=13 ErrMin= 7.53D-06
 ErrMax= 7.53D-06  0.00D+00 EMaxC= 1.00D-01 BMatC= 4.44D-08 BMatP= 2.72D-07
 IDIUse=1 WtCom= 1.00D+00 WtEn= 0.00D+00
 Coeff-Com:  0.567D-04-0.927D-04 0.948D-05-0.118D-05-0.968D-04-0.109D-02
 Coeff-Com: -0.214D-02-0.493D-02-0.129D-01 0.149D-01 0.179D+00 0.277D+00
 Coeff-Com:  0.550D+00
 Coeff:      0.567D-04-0.927D-04 0.948D-05-0.118D-05-0.968D-04-0.109D-02
 Coeff:     -0.214D-02-0.493D-02-0.129D-01 0.149D-01 0.179D+00 0.277D+00
 Coeff:      0.550D+00
 Gap=     0.120 Goal=   None    Shift=    0.000
 RMSDP=5.89D-07 MaxDP=2.68D-05 DE=-3.24D-07 OVMax= 6.56D-05

 Cycle  14  Pass 1  IDiag  1:
 RMSU=  2.79D-07    CP:  1.00D+00  5.03D-01  1.24D-01  6.87D-01  3.11D-01
                    CP:  6.00D-01  3.96D-01  7.25D-01  9.19D-01  6.60D-01
                    CP:  8.46D-01  4.54D-01  6.56D-01
 E= -7517.81527818752     Delta-E=       -0.000000058029 Rises=F Damp=F
 DIIS: error= 1.56D-06 at cycle  14 NSaved=  14.
 NSaved=14 IEnMin=14 EnMin= -7517.81527818752     IErMin=14 ErrMin= 1.56D-06
 ErrMax= 1.56D-06  0.00D+00 EMaxC= 1.00D-01 BMatC= 2.92D-09 BMatP= 4.44D-08
 IDIUse=1 WtCom= 1.00D+00 WtEn= 0.00D+00
 Coeff-Com:  0.117D-04-0.974D-05 0.351D-05 0.336D-04 0.386D-04-0.272D-03
 Coeff-Com: -0.712D-03-0.266D-02-0.126D-01-0.528D-02 0.399D-01 0.120D+00
 Coeff-Com:  0.304D+00 0.558D+00
 Coeff:      0.117D-04-0.974D-05 0.351D-05 0.336D-04 0.386D-04-0.272D-03
 Coeff:     -0.712D-03-0.266D-02-0.126D-01-0.528D-02 0.399D-01 0.120D+00
 Coeff:      0.304D+00 0.558D+00
 Gap=     0.120 Goal=   None    Shift=    0.000
 RMSDP=1.91D-07 MaxDP=1.24D-05 DE=-5.80D-08 OVMax= 2.06D-05

 Cycle  15  Pass 1  IDiag  1:
 RMSU=  9.74D-08    CP:  1.00D+00  5.03D-01  1.24D-01  6.87D-01  3.11D-01
                    CP:  6.00D-01  3.96D-01  7.25D-01  9.20D-01  6.63D-01
                    CP:  8.56D-01  4.64D-01  7.28D-01  7.16D-01
 E= -7517.81527819078     Delta-E=       -0.000000003263 Rises=F Damp=F
 DIIS: error= 4.51D-07 at cycle  15 NSaved=  15.
 NSaved=15 IEnMin=15 EnMin= -7517.81527819078     IErMin=15 ErrMin= 4.51D-07
 ErrMax= 4.51D-07  0.00D+00 EMaxC= 1.00D-01 BMatC= 2.38D-10 BMatP= 2.92D-09
 IDIUse=1 WtCom= 1.00D+00 WtEn= 0.00D+00
 Coeff-Com:  0.225D-05 0.352D-07-0.245D-06 0.294D-04 0.408D-04 0.629D-05
 Coeff-Com: -0.129D-03-0.937D-03-0.534D-02-0.439D-02 0.354D-02 0.374D-01
 Coeff-Com:  0.105D+00 0.300D+00 0.564D+00
 Coeff:      0.225D-05 0.352D-07-0.245D-06 0.294D-04 0.408D-04 0.629D-05
 Coeff:     -0.129D-03-0.937D-03-0.534D-02-0.439D-02 0.354D-02 0.374D-01
 Coeff:      0.105D+00 0.300D+00 0.564D+00
 Gap=     0.120 Goal=   None    Shift=    0.000
 RMSDP=5.48D-08 MaxDP=3.19D-06 DE=-3.26D-09 OVMax= 5.56D-06

 Cycle  16  Pass 1  IDiag  1:
 RMSU=  3.53D-08    CP:  1.00D+00  5.03D-01  1.24D-01  6.87D-01  3.11D-01
                    CP:  6.00D-01  3.96D-01  7.25D-01  9.20D-01  6.62D-01
                    CP:  8.58D-01  4.70D-01  7.25D-01  7.80D-01  7.40D-01
 E= -7517.81527819086     Delta-E=       -0.000000000084 Rises=F Damp=F
 DIIS: error= 1.21D-07 at cycle  16 NSaved=  16.
 NSaved=16 IEnMin=16 EnMin= -7517.81527819086     IErMin=16 ErrMin= 1.21D-07
 ErrMax= 1.21D-07  0.00D+00 EMaxC= 1.00D-01 BMatC= 2.11D-11 BMatP= 2.38D-10
 IDIUse=1 WtCom= 1.00D+00 WtEn= 0.00D+00
 Coeff-Com: -0.622D-06 0.192D-05-0.150D-06 0.876D-05 0.125D-04 0.429D-04
 Coeff-Com:  0.411D-04-0.891D-04-0.830D-03-0.128D-02-0.318D-02 0.326D-02
 Coeff-Com:  0.145D-01 0.747D-01 0.260D+00 0.653D+00
 Coeff:     -0.622D-06 0.192D-05-0.150D-06 0.876D-05 0.125D-04 0.429D-04
 Coeff:      0.411D-04-0.891D-04-0.830D-03-0.128D-02-0.318D-02 0.326D-02
 Coeff:      0.145D-01 0.747D-01 0.260D+00 0.653D+00
 Gap=     0.120 Goal=   None    Shift=    0.000
 RMSDP=1.70D-08 MaxDP=1.43D-06 DE=-8.37D-11 OVMax= 1.97D-06

 Cycle  17  Pass 1  IDiag  1:
 RMSU=  9.95D-09    CP:  1.00D+00  5.03D-01  1.24D-01  6.87D-01  3.11D-01
                    CP:  6.00D-01  3.96D-01  7.25D-01  9.20D-01  6.62D-01
                    CP:  8.58D-01  4.70D-01  7.31D-01  7.80D-01  8.32D-01
                    CP:  8.21D-01
 E= -7517.81527819112     Delta-E=       -0.000000000256 Rises=F Damp=F
 DIIS: error= 3.37D-08 at cycle  17 NSaved=  17.
 NSaved=17 IEnMin=17 EnMin= -7517.81527819112     IErMin=17 ErrMin= 3.37D-08
 ErrMax= 3.37D-08  0.00D+00 EMaxC= 1.00D-01 BMatC= 2.29D-12 BMatP= 2.11D-11
 IDIUse=1 WtCom= 1.00D+00 WtEn= 0.00D+00
 Coeff-Com: -0.528D-06 0.993D-06-0.117D-06 0.163D-05 0.209D-05 0.207D-04
 Coeff-Com:  0.327D-04 0.470D-04 0.130D-03-0.145D-03-0.174D-02-0.197D-02
 Coeff-Com: -0.305D-02 0.880D-02 0.632D-01 0.295D+00 0.640D+00
 Coeff:     -0.528D-06 0.993D-06-0.117D-06 0.163D-05 0.209D-05 0.207D-04
 Coeff:      0.327D-04 0.470D-04 0.130D-03-0.145D-03-0.174D-02-0.197D-02
 Coeff:     -0.305D-02 0.880D-02 0.632D-01 0.295D+00 0.640D+00
 Gap=     0.120 Goal=   None    Shift=    0.000
 RMSDP=5.95D-09 MaxDP=4.58D-07 DE=-2.56D-10 OVMax= 6.64D-07

 SCF Done:  E(RPBE1PBE) =  -7517.81527819     A.U. after   17 cycles
            NFock= 17  Conv=0.59D-08     -V/T= 2.1285
 KE= 6.661972451927D+03 PE=-2.470430539081D+04 EE= 6.968065905078D+03
 Leave Link  502 at Tue Mar  6 12:14:06 2018, MaxMem=   536870912 cpu:      3588.6
 (Enter /share/apps//mg09/l601.exe)
 Copying SCF densities to generalized density rwf, IOpCl= 0 IROHF=0.

 **********************************************************************

            Population analysis using the SCF density.

 **********************************************************************

 Orbital symmetries:
       Occupied  (A) (A) (A) (A) (A) (A) (A) (A) (A) (A) (A) (A)
                 (A) (A) (A) (A) (A) (A) (A) (A) (A) (A) (A) (A)
                 (A) (A) (A) (A) (A) (A) (A) (A) (A) (A) (A) (A)
                 (A) (A) (A) (A) (A) (A) (A) (A) (A) (A) (A) (A)
                 (A) (A) (A) (A) (A) (A) (A) (A) (A) (A) (A) (A)
                 (A) (A) (A) (A) (A) (A) (A) (A) (A) (A) (A) (A)
                 (A) (A) (A) (A) (A) (A) (A) (A) (A) (A) (A) (A)
                 (A) (A) (A) (A) (A) (A) (A) (A) (A) (A) (A) (A)
                 (A) (A) (A) (A) (A) (A) (A) (A) (A) (A) (A) (A)
                 (A) (A) (A) (A) (A) (A) (A) (A)
       Virtual   (A) (A) (A) (A) (A) (A) (A) (A) (A) (A) (A) (A)
                 (A) (A) (A) (A) (A) (A) (A) (A) (A) (A) (A) (A)
                 (A) (A) (A) (A) (A) (A) (A) (A) (A) (A) (A) (A)
                 (A) (A) (A) (A) (A) (A) (A) (A) (A) (A) (A) (A)
                 (A) (A) (A) (A) (A) (A) (A) (A) (A) (A) (A) (A)
                 (A) (A) (A) (A) (A) (A) (A) (A) (A) (A) (A) (A)
                 (A) (A) (A) (A) (A) (A) (A) (A) (A) (A) (A) (A)
                 (A) (A) (A) (A) (A) (A) (A) (A) (A) (A) (A) (A)
                 (A) (A) (A) (A) (A) (A) (A) (A) (A) (A) (A) (A)
                 (A) (A) (A) (A) (A) (A) (A) (A) (A) (A) (A) (A)
                 (A) (A) (A) (A) (A) (A) (A) (A) (A) (A) (A) (A)
                 (A) (A) (A) (A) (A) (A) (A) (A) (A) (A) (A) (A)
                 (A) (A) (A) (A) (A) (A) (A) (A) (A) (A) (A) (A)
                 (A) (A) (A) (A) (A) (A) (A) (A) (A) (A) (A) (A)
                 (A) (A) (A) (A) (A) (A) (A) (A) (A) (A) (A) (A)
                 (A) (A) (A) (A) (A) (A) (A) (A) (A) (A) (A) (A)
                 (A) (A) (A) (A) (A) (A) (A) (A) (A) (A) (A) (A)
                 (A) (A) (A) (A) (A) (A) (A) (A) (A) (A) (A) (A)
                 (A) (A) (A) (A) (A) (A) (A) (A) (A) (A) (A) (A)
                 (A) (A) (A) (A) (A) (A) (A) (A) (A) (A) (A) (A)
                 (A) (A) (A) (A) (A) (A) (A) (A) (A) (A) (A) (A)
                 (A) (A) (A) (A) (A) (A) (A) (A) (A) (A) (A) (A)
                 (A) (A) (A) (A) (A) (A) (A) (A) (A) (A) (A) (A)
                 (A) (A) (A) (A) (A) (A) (A) (A) (A) (A) (A) (A)
                 (A) (A) (A) (A) (A) (A) (A) (A) (A) (A) (A) (A)
                 (A) (A) (A) (A) (A) (A) (A) (A) (A) (A) (A) (A)
                 (A) (A) (A) (A) (A) (A) (A) (A) (A) (A) (A) (A)
                 (A) (A) (A) (A)
 The electronic state is 1-A.
 Alpha  occ. eigenvalues -- -399.09572-399.09449-399.08877 -49.91125 -49.91058
 Alpha  occ. eigenvalues --  -49.90469 -44.39232 -44.39171 -44.39143 -44.39137
 Alpha  occ. eigenvalues --  -44.39125 -44.39065 -44.38548 -44.38527 -44.38495
 Alpha  occ. eigenvalues --   -6.27627  -6.27571  -6.26980  -6.02810  -6.02655
 Alpha  occ. eigenvalues --   -6.01118  -6.00994  -5.13955  -5.13412  -4.43146
 Alpha  occ. eigenvalues --   -4.43019  -4.42984  -4.42955  -4.42840  -4.42775
 Alpha  occ. eigenvalues --   -4.42431  -4.42342  -4.42240  -3.75078  -3.74957
 Alpha  occ. eigenvalues --   -3.74925  -3.74820  -3.74816  -3.74637  -3.73423
 Alpha  occ. eigenvalues --   -3.73318  -3.73281  -3.73135  -3.73058  -3.72927
 Alpha  occ. eigenvalues --   -3.47191  -3.47096  -3.46918  -3.46705  -3.46532
 Alpha  occ. eigenvalues --   -3.46356  -1.22618  -1.22569  -1.22515  -1.22494
 Alpha  occ. eigenvalues --   -1.22442  -1.22407  -1.22329  -1.22294  -1.22227
 Alpha  occ. eigenvalues --   -1.22172  -1.21887  -1.21861  -1.21772  -1.21688
 Alpha  occ. eigenvalues --   -1.21674  -1.09072  -1.08817  -1.08674  -1.08650
 Alpha  occ. eigenvalues --   -1.08537  -1.08488  -1.08432  -1.08328  -1.08238
 Alpha  occ. eigenvalues --   -1.08162  -1.07059  -1.06995  -1.06948  -1.06879
 Alpha  occ. eigenvalues --   -1.06864  -1.06739  -1.06713  -1.06657  -1.06569
 Alpha  occ. eigenvalues --   -1.06514  -1.03380  -1.03378  -1.03187  -1.03132
 Alpha  occ. eigenvalues --   -1.03076  -1.02905  -1.02860  -1.02709  -1.02615
 Alpha  occ. eigenvalues --   -1.02535  -0.66946  -0.62031  -0.59884  -0.54971
 Alpha  occ. eigenvalues --   -0.53841  -0.45825  -0.43585  -0.42717  -0.40576
 Alpha  occ. eigenvalues --   -0.29045  -0.27352  -0.27141  -0.25621  -0.25369
 Alpha  occ. eigenvalues --   -0.24492  -0.23597  -0.22094  -0.21536  -0.21267
 Alpha  occ. eigenvalues --   -0.20038
 Alpha virt. eigenvalues --   -0.08001  -0.07405  -0.06659  -0.06460  -0.06318
 Alpha virt. eigenvalues --   -0.06136  -0.05765  -0.05102  -0.04463  -0.02981
 Alpha virt. eigenvalues --   -0.02838  -0.01857  -0.01211   0.04096   0.05118
 Alpha virt. eigenvalues --    0.05519   0.06231   0.07864   0.08634   0.08925
 Alpha virt. eigenvalues --    0.09297   0.09453   0.09851   0.10013   0.10607
 Alpha virt. eigenvalues --    0.10754   0.11801   0.11896   0.12196   0.12760
 Alpha virt. eigenvalues --    0.13691   0.15546   0.16072   0.16974   0.17226
 Alpha virt. eigenvalues --    0.17883   0.17954   0.19447   0.19852   0.20361
 Alpha virt. eigenvalues --    0.20705   0.21593   0.22293   0.23513   0.23763
 Alpha virt. eigenvalues --    0.24384   0.26320   0.26808   0.27983   0.28424
 Alpha virt. eigenvalues --    0.29073   0.30098   0.30415   0.30747   0.31303
 Alpha virt. eigenvalues --    0.31748   0.32082   0.33034   0.33508   0.33915
 Alpha virt. eigenvalues --    0.34355   0.35188   0.36345   0.36513   0.37229
 Alpha virt. eigenvalues --    0.38987   0.39763   0.40750   0.41127   0.41723
 Alpha virt. eigenvalues --    0.42694   0.43124   0.43235   0.44698   0.45201
 Alpha virt. eigenvalues --    0.45487   0.46006   0.46439   0.47196   0.48100
 Alpha virt. eigenvalues --    0.48648   0.49018   0.49998   0.50460   0.51341
 Alpha virt. eigenvalues --    0.51964   0.53637   0.54168   0.55011   0.55572
 Alpha virt. eigenvalues --    0.56948   0.57799   0.58441   0.59216   0.59438
 Alpha virt. eigenvalues --    0.60123   0.60227   0.61382   0.61735   0.63037
 Alpha virt. eigenvalues --    0.63726   0.64322   0.64802   0.65486   0.65818
 Alpha virt. eigenvalues --    0.66961   0.67097   0.68174   0.69041   0.69763
 Alpha virt. eigenvalues --    0.70624   0.70942   0.71692   0.72384   0.73551
 Alpha virt. eigenvalues --    0.75240   0.75425   0.76254   0.77473   0.78185
 Alpha virt. eigenvalues --    0.78894   0.79099   0.80686   0.81972   0.82449
 Alpha virt. eigenvalues --    0.83334   0.84143   0.84201   0.84742   0.85369
 Alpha virt. eigenvalues --    0.86308   0.86719   0.88255   0.88557   0.89857
 Alpha virt. eigenvalues --    0.90382   0.91613   0.91657   0.92169   0.92924
 Alpha virt. eigenvalues --    0.93387   0.94519   0.94760   0.96103   0.96570
 Alpha virt. eigenvalues --    0.97242   0.98299   0.99488   0.99985   1.01580
 Alpha virt. eigenvalues --    1.02425   1.03726   1.05688   1.06075   1.08025
 Alpha virt. eigenvalues --    1.08939   1.10109   1.11303   1.12252   1.12857
 Alpha virt. eigenvalues --    1.13819   1.14856   1.15887   1.17089   1.17710
 Alpha virt. eigenvalues --    1.18203   1.18837   1.19237   1.19878   1.20384
 Alpha virt. eigenvalues --    1.21148   1.21565   1.21735   1.22137   1.22705
 Alpha virt. eigenvalues --    1.23204   1.23979   1.24210   1.24462   1.24793
 Alpha virt. eigenvalues --    1.25156   1.25638   1.26215   1.26628   1.27784
 Alpha virt. eigenvalues --    1.27984   1.28271   1.28751   1.29600   1.29802
 Alpha virt. eigenvalues --    1.30364   1.31232   1.31712   1.32994   1.33298
 Alpha virt. eigenvalues --    1.34651   1.35120   1.36155   1.37252   1.39025
 Alpha virt. eigenvalues --    1.39877   1.40415   1.41644   1.42168   1.44504
 Alpha virt. eigenvalues --    1.45136   1.45863   1.47470   1.47971   1.48651
 Alpha virt. eigenvalues --    1.49378   1.50408   1.51639   1.52300   1.53747
 Alpha virt. eigenvalues --    1.54254   1.55633   1.57116   1.59452   1.60578
 Alpha virt. eigenvalues --    1.62937   1.64621   1.68354   2.03129   2.05313
 Alpha virt. eigenvalues --    2.07424   2.10849   2.12933   2.13745   2.15681
 Alpha virt. eigenvalues --    2.16326   2.18210   2.19087   2.20284   2.20439
 Alpha virt. eigenvalues --    2.21506   2.23580   2.24165   2.24318   2.24907
 Alpha virt. eigenvalues --    2.26890   2.28526   2.29929   2.30349   2.31060
 Alpha virt. eigenvalues --    2.31888   2.34255   2.37705   2.39316   2.39861
 Alpha virt. eigenvalues --    2.40622   2.42630   2.42979   2.45860   2.48649
 Alpha virt. eigenvalues --    2.50145   2.50787   2.52269   2.53532   2.54451
 Alpha virt. eigenvalues --    2.55411   2.59855   2.61136   2.62493   2.66734
 Alpha virt. eigenvalues --    2.67348   2.69873   2.71123   2.72932   2.75053
 Alpha virt. eigenvalues --    2.76509   2.77741   2.80324   2.80979   2.82132
 Alpha virt. eigenvalues --    2.82572   2.83239   2.88851   2.92906   2.98991
 Alpha virt. eigenvalues --    3.19160   3.24188   3.34824   3.35909   3.37477
 Alpha virt. eigenvalues --    3.44564   3.97075   3.98595   3.99357   4.00041
 Alpha virt. eigenvalues --    4.04403   4.05505   4.06268   4.09966   4.14637
 Alpha virt. eigenvalues --    5.27747   5.32884   5.37213  35.39006  35.40389
 Alpha virt. eigenvalues --   35.43165  35.43839  35.44365  35.46932  35.48616
 Alpha virt. eigenvalues --   35.52228  35.52748  35.56726  35.57616  35.63746
 Alpha virt. eigenvalues --   35.88153  35.96089  35.96393  36.10240  36.18561
 Alpha virt. eigenvalues --   36.22031  36.90962  36.99370  36.99809  37.05952
 Alpha virt. eigenvalues --   37.08355  37.11675 113.56889 113.58714 120.22033
 Alpha virt. eigenvalues --  120.23866 120.24428 120.26004
          Condensed to atoms (all electrons):
               1          2          3          4          5          6
     1  Ge  31.617627  -0.015768   0.147922  -0.016587  -0.017844  -0.012695
     2  Ge  -0.015768  31.532027   0.142348   0.182446   0.195702  -0.006974
     3  Ge   0.147922   0.142348  31.521054  -0.021645   0.136838  -0.015608
     4  Bi  -0.016587   0.182446  -0.021645  22.413979  -0.021585   0.176397
     5  Bi  -0.017844   0.195702   0.136838  -0.021585  22.381512   0.171912
     6  Sn  -0.012695  -0.006974  -0.015608   0.176397   0.171912  21.463432
     7  Sn   0.155163   0.144108   0.111873   0.132469  -0.020279  -0.014241
     8  Bi   0.173937  -0.019620   0.061923  -0.027596   0.174144   0.119239
     9  Bi   0.159902  -0.019529  -0.030104   0.179024  -0.027529   0.125869
               7          8          9
     1  Ge   0.155163   0.173937   0.159902
     2  Ge   0.144108  -0.019620  -0.019529
     3  Ge   0.111873   0.061923  -0.030104
     4  Bi   0.132469  -0.027596   0.179024
     5  Bi  -0.020279   0.174144  -0.027529
     6  Sn  -0.014241   0.119239   0.125869
     7  Sn  21.329377  -0.024670   0.064732
     8  Bi  -0.024670  22.275124   0.136189
     9  Bi   0.064732   0.136189  22.306139
 Mulliken charges:
               1
     1  Ge  -0.191657
     2  Ge  -0.134739
     3  Ge  -0.054601
     4  Bi   0.003098
     5  Bi   0.027129
     6  Sn  -0.007333
     7  Sn   0.121467
     8  Bi   0.131331
     9  Bi   0.105306
 Sum of Mulliken charges =   0.00000
 Mulliken charges with hydrogens summed into heavy atoms:
               1
     1  Ge  -0.191657
     2  Ge  -0.134739
     3  Ge  -0.054601
     4  Bi   0.003098
     5  Bi   0.027129
     6  Sn  -0.007333
     7  Sn   0.121467
     8  Bi   0.131331
     9  Bi   0.105306
 Electronic spatial extent (au):  <R**2>=           6090.8805
 Charge=              0.0000 electrons
 Dipole moment (field-independent basis, Debye):
    X=             -0.0798    Y=              0.6562    Z=             -1.7888  Tot=              1.9070
 Quadrupole moment (field-independent basis, Debye-Ang):
   XX=           -215.3931   YY=           -218.6094   ZZ=           -221.1163
   XY=              0.2332   XZ=              1.3979   YZ=              0.8461
 Traceless Quadrupole moment (field-independent basis, Debye-Ang):
   XX=              2.9798   YY=             -0.2365   ZZ=             -2.7433
   XY=              0.2332   XZ=              1.3979   YZ=              0.8461
 Octapole moment (field-independent basis, Debye-Ang**2):
  XXX=            -22.3359  YYY=             15.6311  ZZZ=            -96.6427  XYY=             -8.2306
  XXY=              7.8630  XXZ=            -38.6824  XZZ=              0.5618  YZZ=              2.6816
  YYZ=            -46.1616  XYZ=             -1.1430
 Hexadecapole moment (field-independent basis, Debye-Ang**3):
 XXXX=          -3421.1539 YYYY=          -3079.4184 ZZZZ=          -3176.4575 XXXY=             -3.9514
 XXXZ=            -56.3077 YYYX=              1.0425 YYYZ=            -32.4829 ZZZX=            -49.8995
 ZZZY=             -7.0482 XXYY=          -1035.0451 XXZZ=          -1102.9620 YYZZ=          -1048.1388
 XXYZ=            -10.5577 YYXZ=            -28.2310 ZZXY=              3.4936
 N-N= 3.556451755610D+03 E-N=-2.470430536473D+04  KE= 6.661972451927D+03
 No NMR shielding tensors so no spin-rotation constants.
 Leave Link  601 at Tue Mar  6 12:14:07 2018, MaxMem=   536870912 cpu:         1.7
 (Enter /share/apps//mg09/l701.exe)
 Compute integral first derivatives.
 ... and contract with generalized density number  0.
   1 Symmetry operations used in ECPInt.
 ECPInt:  NShTT=   10440 NPrTT=   41973 LenC2=    9673 LenP2D=   27462.
 LDataN:  DoStor=T MaxTD1= 9 Len=  602
 Leave Link  701 at Tue Mar  6 12:14:40 2018, MaxMem=   536870912 cpu:       114.0
 (Enter /share/apps//mg09/l702.exe)
 L702 exits ... SP integral derivatives will be done elsewhere.
 Leave Link  702 at Tue Mar  6 12:14:40 2018, MaxMem=   536870912 cpu:         0.1
 (Enter /share/apps//mg09/l703.exe)
 Compute integral first derivatives, UseDBF=F ICtDFT=           0.
 Integral derivatives from FoFJK, PRISM(SPDF).
 Calling FoFJK, ICntrl=      2127 FMM=F ISym2X=0 I1Cent= 0 IOpClX= 0 NMat=1 NMatS=1 NMatT=0.
 FoFJK:  IHMeth= 1 ICntrl=    2127 DoSepK=F KAlg= 0 I1Cent=   0 FoldK=F
 IRaf=         0 NMat=   1 IRICut=       1 DoRegI=T DoRafI=F ISym2E= 0.
 FoFCou: FMM=F IPFlag=           0 FMFlag=      100000 FMFlg1=         800
         NFxFlg=           0 DoJE=F BraDBF=F KetDBF=F FulRan=T
         wScrn=  0.000000 ICntrl=    2127 IOpCl=  0 I1Cent=           0 NGrid=           0
         NMat0=    1 NMatS0=      1 NMatT0=    0 NMatD0=    1 NMtDS0=    0 NMtDT0=    0
 Symmetry not used in FoFCou.
 Defaulting to unpruned grid for atomic number  83.
 Defaulting to unpruned grid for atomic number  83.
 Defaulting to unpruned grid for atomic number  83.
 Defaulting to unpruned grid for atomic number  83.
 Leave Link  703 at Tue Mar  6 12:18:59 2018, MaxMem=   536870912 cpu:       865.9
 (Enter /share/apps//mg09/l716.exe)
 Dipole        =-3.13792827D-02 2.58166002D-01-7.03764336D-01
 ***** Axes restored to original set *****
 -------------------------------------------------------------------
 Center     Atomic                   Forces (Hartrees/Bohr)
 Number     Number              X              Y              Z
 -------------------------------------------------------------------
      1       32          -0.001562525   -0.013628823   -0.005420963
      2       32          -0.001462261    0.015101246   -0.001643505
      3       32           0.011561742   -0.000311146   -0.011328999
      4       83          -0.006603193    0.003028804    0.004021610
      5       83           0.008056414    0.003605737    0.002643618
      6       50           0.001935012    0.001996199    0.009367884
      7       50          -0.014111217   -0.000577983   -0.006728589
      8       83           0.007079246   -0.004409964    0.003771793
      9       83          -0.004893218   -0.004804070    0.005317152
 -------------------------------------------------------------------
 Cartesian Forces:  Max     0.015101246 RMS     0.007112137
 Force constants in Cartesian coordinates: 
                1             2             3             4             5 
      1  0.134675D+00
      2  0.388119D-02  0.178190D+00
      3  0.923732D-02  0.352097D-01  0.165312D+00
      4  0.961151D-02  0.745742D-03 -0.116866D-02  0.152227D+00
      5 -0.115078D-03 -0.630963D-02 -0.500433D-02 -0.486402D-02  0.180137D+00
      6 -0.134878D-02  0.319279D-02  0.431367D-02  0.402246D-03 -0.223407D-01
      7 -0.340544D-01 -0.417445D-02  0.161580D-01 -0.347657D-01  0.512000D-03
      8 -0.259617D-01 -0.538633D-01  0.232780D-01  0.218335D-01 -0.517386D-01
      9  0.273178D-02 -0.140722D-01 -0.372211D-01  0.953931D-02  0.813123D-02
     10  0.207522D-02  0.523799D-02  0.429531D-02 -0.403527D-01  0.661596D-02
     11 -0.316420D-03 -0.653682D-03 -0.560160D-02 -0.181413D-01 -0.325259D-01
     12  0.103873D-02 -0.668663D-02  0.485291D-02  0.241438D-01  0.157343D-03
     13  0.142478D-02 -0.695244D-02 -0.254025D-02 -0.607675D-01 -0.680987D-02
     14 -0.186065D-02 -0.728398D-03 -0.621584D-02  0.276308D-01 -0.337269D-01
     15  0.712372D-03 -0.480177D-02  0.714030D-02 -0.222533D-01  0.233241D-02
     16  0.856336D-02 -0.118629D-02 -0.195832D-02  0.737131D-02  0.694897D-03
     17  0.511237D-04  0.104899D-02 -0.577568D-03  0.809107D-03 -0.126714D-02
     18 -0.172102D-02 -0.751781D-02 -0.249274D-02 -0.252549D-02  0.280155D-02
     19 -0.387124D-01  0.541094D-03 -0.169470D-01 -0.392391D-01  0.249108D-02
     20  0.340411D-01 -0.472044D-01  0.116493D-01 -0.300322D-01 -0.485807D-01
     21 -0.168308D-02 -0.148971D-01 -0.276376D-01 -0.826197D-02  0.734443D-02
     22 -0.525348D-01  0.119262D-01 -0.213310D-01  0.255709D-02  0.845832D-02
     23 -0.197773D-01 -0.362718D-01 -0.256301D-01  0.591557D-03 -0.276105D-02
     24 -0.382355D-01  0.142382D-02 -0.509004D-01  0.158860D-02  0.194734D-02
     25 -0.310486D-01 -0.100190D-01  0.142545D-01  0.335782D-02 -0.698329D-02
     26  0.100578D-01 -0.342079D-01 -0.271074D-01  0.142681D-02 -0.322730D-02
     27  0.292682D-01  0.814924D-02 -0.633672D-01 -0.146455D-02  0.463070D-02
                6             7             8             9            10 
      6  0.127436D+00
      7  0.195892D-01  0.170559D+00
      8 -0.258331D-01  0.953133D-02  0.166074D+00
      9 -0.354765D-01 -0.324186D-01  0.826930D-02  0.220027D+00
     10  0.202019D-01 -0.282740D-03  0.174716D-02  0.925252D-02  0.139472D+00
     11  0.277361D-01  0.409155D-02  0.550435D-02 -0.495426D-02 -0.278642D-01
     12 -0.439891D-01  0.105565D-02  0.722470D-03 -0.678932D-03 -0.226596D-01
     13 -0.192939D-01 -0.294787D-01 -0.774882D-02  0.857472D-02 -0.749980D-02
     14  0.207640D-01 -0.183858D-01 -0.328192D-01 -0.774781D-02 -0.991550D-03
     15 -0.303351D-01 -0.258836D-01 -0.265340D-01 -0.625374D-01  0.294046D-02
     16 -0.262812D-02  0.436891D-02  0.584254D-03 -0.339258D-02 -0.436247D-01
     17  0.369474D-02  0.110623D-02  0.549193D-02 -0.215240D-03  0.189710D-01
     18 -0.596892D-02  0.584895D-02 -0.167563D-02 -0.579156D-02  0.114579D-02
     19 -0.167123D-01 -0.535085D-01 -0.144382D-03 -0.173930D-01 -0.250981D-01
     20 -0.175526D-01 -0.178095D-02 -0.169167D-01 -0.878741D-03 -0.206280D-02
     21 -0.235893D-01  0.233092D-01 -0.114459D-03 -0.339951D-01 -0.224416D-01
     22 -0.353156D-02 -0.241659D-01  0.240725D-02  0.142052D-01 -0.177144D-02
     23  0.544016D-02  0.154115D-01 -0.252658D-01  0.333933D-02  0.791775D-02
     24  0.451629D-02 -0.138452D-01  0.210609D-01 -0.418880D-01 -0.185817D-02
     25  0.332140D-02  0.132852D-02 -0.224856D-02  0.890066D-02 -0.229175D-01
     26  0.489860D-02 -0.631140D-02  0.353368D-02  0.812844D-02 -0.957138D-02
     27  0.309304D-02  0.618629D-02  0.826516D-03 -0.243798D-02  0.912342D-02
               11            12            13            14            15 
     11  0.129321D+00
     12  0.748789D-02  0.140163D+00
     13 -0.444760D-03  0.226465D-02  0.160870D+00
     14  0.185605D-02 -0.288224D-02  0.306466D-01  0.140886D+00
     15 -0.296851D-02  0.606060D-02  0.249082D-01  0.124005D-02  0.135343D+00
     16  0.421174D-02 -0.257724D-01 -0.332065D-01 -0.717982D-02  0.246038D-01
     17 -0.186263D-01  0.115076D-01 -0.140839D-01 -0.193637D-01  0.187875D-01
     18 -0.752699D-02 -0.351770D-01 -0.168119D-02 -0.554811D-02 -0.432599D-01
     19  0.135825D-01  0.120510D-01 -0.251695D-02 -0.549518D-02 -0.360972D-03
     20 -0.252772D-01 -0.216721D-01 -0.193462D-02  0.581230D-02  0.154157D-02
     21 -0.937102D-02 -0.510458D-01 -0.827874D-02 -0.294774D-02  0.299352D-02
     22  0.350357D-02  0.418434D-02 -0.275227D-01 -0.219086D-01 -0.269766D-02
     23  0.874456D-03 -0.262293D-02  0.158102D-01 -0.622711D-01  0.101408D-01
     24  0.260795D-02  0.413860D-02 -0.781624D-02 -0.502731D-03 -0.195790D-01
     25  0.213772D-01  0.369380D-02 -0.130280D-02 -0.245570D-02 -0.196936D-02
     26 -0.604725D-01  0.139885D-01 -0.848237D-02  0.355370D-03  0.261950D-03
     27 -0.740957D-02 -0.243247D-01  0.386283D-02  0.384048D-02  0.417419D-02
               16            17            18            19            20 
     16  0.110643D+00
     17  0.295587D-02  0.907293D-01
     18  0.893386D-02  0.155631D-01  0.157580D+00
     19  0.225409D-02 -0.115568D-02 -0.842108D-02  0.183210D+00
     20 -0.131524D-02  0.537439D-02 -0.157634D-02 -0.405403D-02  0.143453D+00
     21  0.169919D-03  0.318915D-03 -0.314879D-02  0.458947D-01  0.104506D-01
     22 -0.277190D-01  0.927443D-02 -0.100682D-01 -0.374977D-02  0.217305D-02
     23  0.187635D-01 -0.308602D-01 -0.663776D-03  0.747234D-02  0.461082D-02
     24  0.158136D-01 -0.266588D-01 -0.319184D-01 -0.547605D-02 -0.356480D-03
     25 -0.286508D-01 -0.179282D-01  0.848834D-02 -0.226392D-01  0.496574D-02
     26 -0.175289D-01 -0.325272D-01  0.614406D-02 -0.132377D-01 -0.212713D-01
     27 -0.157698D-01 -0.224202D-01 -0.298232D-01  0.736461D-02  0.183947D-01
               21            22            23            24            25 
     21  0.165455D+00
     22 -0.888816D-02  0.186839D+00
     23  0.450300D-02 -0.314705D-01  0.179312D+00
     24  0.322174D-02  0.332210D-01 -0.261122D-02  0.151395D+00
     25 -0.198203D-01 -0.519325D-01 -0.147190D-01  0.166078D-01  0.153805D+00
     26  0.471330D-02  0.156364D-01 -0.273675D-01  0.308918D-02  0.280108D-01
     27 -0.322537D-01 -0.509401D-02  0.810474D-02 -0.189857D-01 -0.334769D-01
               26            27 
     26  0.175185D+00
     27 -0.141166D-01  0.163925D+00
 Leave Link  716 at Tue Mar  6 12:18:59 2018, MaxMem=   536870912 cpu:         0.1
 (Enter /share/apps//mg09/l103.exe)

 GradGradGradGradGradGradGradGradGradGradGradGradGradGradGradGradGradGrad
 Berny optimization.
 Search for a local minimum.
 Step number   1 out of a maximum of  100
 All quantities printed in internal units (Hartrees-Bohrs-Radians)
 Second derivative matrix not updated -- first step.
 ITU=  0
     Eigenvalues ---    0.08025   0.11839   0.12394   0.12635   0.13655
     Eigenvalues ---    0.14375   0.14810   0.15220   0.15761   0.16553
     Eigenvalues ---    0.17891   0.22354   0.23272   0.23569   0.24553
     Eigenvalues ---    0.25006   0.26566   0.28383   0.29530   0.30662
     Eigenvalues ---    0.31780
 RFO step:  Lambda=-8.01797675D-03 EMin= 8.02509125D-02
 Linear search not attempted -- first point.
 TrRot=  0.000852  0.000075 -0.001899  0.160299  0.000101 -0.160272
 Variable       Old X    -DE/DX   Delta X   Delta X   Delta X     New X
                                 (Linear)    (Quad)   (Total)
    X1        0.29214  -0.00156   0.00000  -0.00779  -0.00673   0.28541
    Y1        4.27474  -0.01363   0.00000  -0.08318  -0.08304   4.19170
    Z1        3.25356  -0.00542   0.00000  -0.02483  -0.02683   3.22673
    X2        0.41365  -0.00146   0.00000  -0.00748  -0.00626   0.40740
    Y2       -4.38445   0.01510   0.00000   0.08775   0.08787  -4.29658
    Z2        2.56123  -0.00164   0.00000  -0.01018  -0.01205   2.54917
    X3       -2.07428   0.01156   0.00000   0.05423   0.05553  -2.01875
    Y3       -0.21559  -0.00031   0.00000   0.00140   0.00149  -0.21410
    Z3        4.54628  -0.01133   0.00000  -0.05732  -0.05901   4.48727
    X4        3.75108  -0.00660   0.00000  -0.05415  -0.05338   3.69770
    Y4       -2.54798   0.00303   0.00000   0.02426   0.02441  -2.52357
    Z4       -1.44537   0.00402   0.00000   0.02731   0.02509  -1.42028
    X5       -4.09255   0.00806   0.00000   0.05583   0.05676  -4.03579
    Y5       -2.71402   0.00361   0.00000   0.02917   0.02914  -2.68488
    Z5        0.01304   0.00264   0.00000   0.00867   0.00722   0.02026
    X6       -0.88995   0.00194   0.00000   0.01285   0.01329  -0.87666
    Y6       -0.93742   0.00200   0.00000   0.01310   0.01308  -0.92434
    Z6       -4.48024   0.00937   0.00000   0.06580   0.06400  -4.41624
    X7        3.57286  -0.01411   0.00000  -0.07196  -0.07073   3.50213
    Y7       -0.08670  -0.00058   0.00000  -0.00002   0.00021  -0.08649
    Z7        3.85032  -0.00673   0.00000  -0.04200  -0.04425   3.80607
    X8       -3.30715   0.00708   0.00000   0.04163   0.04235  -3.26480
    Y8        2.93011  -0.00441   0.00000  -0.03552  -0.03554   2.89457
    Z8       -0.55137   0.00377   0.00000   0.01678   0.01516  -0.53621
    X9        2.56001  -0.00489   0.00000  -0.03144  -0.03083   2.52918
    Y9        3.07425  -0.00480   0.00000  -0.03775  -0.03763   3.03662
    Z9       -1.63147   0.00532   0.00000   0.03288   0.03068  -1.60079
         Item               Value     Threshold  Converged?
 Maximum Force            0.015101     0.000450     NO 
 RMS     Force            0.007112     0.000300     NO 
 Maximum Displacement     0.087875     0.001800     NO 
 RMS     Displacement     0.042309     0.001200     NO 
 Predicted change in Energy=-4.202932D-03
 Lowest energy point so far.  Saving SCF results.
 GradGradGradGradGradGradGradGradGradGradGradGradGradGradGradGradGradGrad

 Leave Link  103 at Tue Mar  6 12:18:59 2018, MaxMem=   536870912 cpu:         0.1
 (Enter /share/apps//mg09/l202.exe)
                          Input orientation:                          
 ---------------------------------------------------------------------
 Center     Atomic      Atomic             Coordinates (Angstroms)
 Number     Number       Type             X           Y           Z
 ---------------------------------------------------------------------
      1         32           0        0.151033    2.218151    1.707512
      2         32           0        0.215584   -2.273650    1.348964
      3         32           0       -1.068277   -0.113296    2.374563
      4         83           0        1.956741   -1.335416   -0.751579
      5         83           0       -2.135650   -1.420775    0.010721
      6         50           0       -0.463908   -0.489137   -2.336971
      7         50           0        1.853249   -0.045770    2.014085
      8         83           0       -1.727657    1.531738   -0.283750
      9         83           0        1.338385    1.606910   -0.847102
 ---------------------------------------------------------------------
                    Distance matrix (angstroms):
                    1          2          3          4          5
     1  Ge   0.000000
     2  Ge   4.506550   0.000000
     3  Ge   2.714280   2.714274   0.000000
     4  Bi   4.683540   2.885167   4.518526   0.000000
     5  Bi   4.620584   2.836652   2.904572   4.163658   0.000000
     6  Sn   4.905650   4.151182   4.764984   3.014829   3.028915
     7  Sn   2.849011   2.843902   2.944456   3.053325   4.670698
     8  Bi   2.822368   4.574158   3.194925   4.691932   2.995080
     9  Bi   2.882616   4.598057   4.373815   3.008117   4.687393
                    6          7          8          9
     6  Sn   0.000000
     7  Sn   4.949493   0.000000
     8  Bi   3.145905   4.537782   0.000000
     9  Bi   3.140284   3.344073   3.118273   0.000000
 Stoichiometry    Bi4Ge3Sn2
 Framework group  C1[X(Bi4Ge3Sn2)]
 Deg. of freedom    21
 Full point group                 C1      NOp   1
 RotChk:  IX=0 Diff= 1.10D-03
 Largest Abelian subgroup         C1      NOp   1
 Largest concise Abelian subgroup C1      NOp   1
                         Standard orientation:                         
 ---------------------------------------------------------------------
 Center     Atomic      Atomic             Coordinates (Angstroms)
 Number     Number       Type             X           Y           Z
 ---------------------------------------------------------------------
      1         32           0        0.149190    2.218743    1.703571
      2         32           0        0.216814   -2.272958    1.344340
      3         32           0       -1.068861   -0.113604    2.369775
      4         83           0        1.958183   -1.333256   -0.755371
      5         83           0       -2.134450   -1.421406    0.005307
      6         50           0       -0.462394   -0.488307   -2.341581
      7         50           0        1.852763   -0.044115    2.010456
      8         83           0       -1.728268    1.531420   -0.288538
      9         83           0        1.337945    1.608680   -0.850672
 ---------------------------------------------------------------------
 Rotational constants (GHZ):      0.1058966      0.0928294      0.0860691
 Leave Link  202 at Tue Mar  6 12:19:00 2018, MaxMem=   536870912 cpu:         0.2
 (Enter /share/apps//mg09/l301.exe)
 Standard basis: def2TZVP (5D, 7F)
 Ernie: Thresh=  0.10000D-02 Tol=  0.10000D-05 Strict=F.
 There are   519 symmetry adapted cartesian basis functions of A   symmetry.
 There are   444 symmetry adapted basis functions of A   symmetry.
   444 basis functions,   963 primitive gaussians,   519 cartesian basis functions
   116 alpha electrons      116 beta electrons
       nuclear repulsion energy      3611.9695971902 Hartrees.
 IExCor= 1009 DFT=T Ex+Corr=PBE1PBE ExCW=0 ScaHFX=  0.250000
 ScaDFX=  0.750000  0.750000  1.000000  1.000000 ScalE2=  1.000000  1.000000
 IRadAn=      0 IRanWt=     -1 IRanGd=            0 ICorTp=0 IEmpDi=  4
 NAtoms=    9 NActive=    9 NUniq=    9 SFac= 1.00D+00 NAtFMM=   60 NAOKFM=F Big=F
 Integral buffers will be    131072 words long.
 Raffenetti 2 integral format.
 Two-electron integral symmetry is turned on.
 Leave Link  301 at Tue Mar  6 12:19:00 2018, MaxMem=   536870912 cpu:         0.2
 (Enter /share/apps//mg09/l302.exe)
 NPDir=0 NMtPBC=     1 NCelOv=     1 NCel=       1 NClECP=     1 NCelD=      1
         NCelK=      1 NCelE2=     1 NClLst=     1 CellRange=     0.0.
 One-electron integrals computed using PRISM.
   1 Symmetry operations used in ECPInt.
 ECPInt:  NShTT=   10440 NPrTT=   41973 LenC2=    9717 LenP2D=   27674.
 LDataN:  DoStor=T MaxTD1= 8 Len=  415
 NBasis=   444 RedAO= T EigKep=  1.36D-03  NBF=   444
 NBsUse=   444 1.00D-06 EigRej= -1.00D+00 NBFU=   444
 Precomputing XC quadrature grid using
 IXCGrd= 4 IRadAn=           0 IRanWt=          -1 IRanGd=           0 AccXCQ= 0.00D+00.
 Defaulting to unpruned grid for atomic number  50.
 Defaulting to unpruned grid for atomic number  83.
 Generated NRdTot=       0 NPtTot=           0 NUsed=           0 NTot=          32
 NSgBfM=   503   503   504   505   505 MxSgAt=     9 MxSgA2=     9.
 Leave Link  302 at Tue Mar  6 12:19:10 2018, MaxMem=   536870912 cpu:        34.6
 (Enter /share/apps//mg09/l303.exe)
 DipDrv:  MaxL=1.
 Leave Link  303 at Tue Mar  6 12:19:10 2018, MaxMem=   536870912 cpu:         0.3
 (Enter /share/apps//mg09/l401.exe)
 Initial guess from the checkpoint file:  "Isomer_22.chk"
 B after Tr=     0.000000    0.000000    0.000000
         Rot=    1.000000   -0.000114    0.000289   -0.000269 Ang=  -0.05 deg.
 Guess basis will be translated and rotated to current coordinates.
 JPrj=2 DoOrth=T DoCkMO=T.
 Generating alternative initial guess.
 ExpMin= 4.62D-02 ExpMax= 4.66D+05 ExpMxC= 4.50D+03 IAcc=2 IRadAn=         4 AccDes= 0.00D+00
 Harris functional with IExCor= 1009 and IRadAn=       4 diagonalized for initial guess.
 HarFok:  IExCor= 1009 AccDes= 0.00D+00 IRadAn=         4 IDoV= 1 UseB2=F ITyADJ=14
 ICtDFT=  3500011 ScaDFX=  1.000000  1.000000  1.000000  1.000000
 Defaulting to unpruned grid for atomic number  83.
 Defaulting to unpruned grid for atomic number  83.
 Defaulting to unpruned grid for atomic number  83.
 Defaulting to unpruned grid for atomic number  83.
 FoFCou: FMM=F IPFlag=           0 FMFlag=      100000 FMFlg1=           0
         NFxFlg=           0 DoJE=T BraDBF=F KetDBF=T FulRan=T
         wScrn=  0.000000 ICntrl=     500 IOpCl=  0 I1Cent=   200000004 NGrid=           0
         NMat0=    1 NMatS0=      1 NMatT0=    0 NMatD0=    1 NMtDS0=    0 NMtDT0=    0
 Petite list used in FoFCou.
 Harris En= -7518.62656613331    
 Leave Link  401 at Tue Mar  6 12:19:14 2018, MaxMem=   536870912 cpu:        14.1
 (Enter /share/apps//mg09/l502.exe)
 Closed shell SCF:
 Using DIIS extrapolation, IDIIS=  1040.
 Integral symmetry usage will be decided dynamically.
 IVT=     1410107 IEndB=     1410107 NGot=   536870912 MDV=   536322046
 LenX=   536322046 LenY=   536052166
 Requested convergence on RMS density matrix=1.00D-08 within 768 cycles.
 Requested convergence on MAX density matrix=1.00D-06.
 Requested convergence on             energy=1.00D-06.
 No special actions if energy rises.
 Fock matrices will be formed incrementally for  20 cycles.

 Cycle   1  Pass 1  IDiag  1:
 FoFJK:  IHMeth= 1 ICntrl=       0 DoSepK=F KAlg= 0 I1Cent=   0 FoldK=F
 IRaf= 880000000 NMat=   1 IRICut=       1 DoRegI=T DoRafI=F ISym2E= 0.
 FoFCou: FMM=F IPFlag=           0 FMFlag=      100000 FMFlg1=           0
         NFxFlg=           0 DoJE=F BraDBF=F KetDBF=F FulRan=T
         wScrn=  0.000000 ICntrl=       0 IOpCl=  0 I1Cent=           0 NGrid=           0
         NMat0=    1 NMatS0=      1 NMatT0=    0 NMatD0=    1 NMtDS0=    0 NMtDT0=    0
 Symmetry not used in FoFCou.
 Defaulting to unpruned grid for atomic number  83.
 Defaulting to unpruned grid for atomic number  83.
 Defaulting to unpruned grid for atomic number  83.
 Defaulting to unpruned grid for atomic number  83.
 E= -7517.81973063894    
 DIIS: error= 5.39D-03 at cycle   1 NSaved=   1.
 NSaved= 1 IEnMin= 1 EnMin= -7517.81973063894     IErMin= 1 ErrMin= 5.39D-03
 ErrMax= 5.39D-03  0.00D+00 EMaxC= 1.00D-01 BMatC= 8.02D-03 BMatP= 8.02D-03
 IDIUse=3 WtCom= 9.46D-01 WtEn= 5.39D-02
 Coeff-Com:  0.100D+01
 Coeff-En:   0.100D+01
 Coeff:      0.100D+01
 Gap=     7.750 Goal=   None    Shift=    0.000
 GapD=    7.750 DampG=2.000 DampE=1.000 DampFc=2.0000 IDamp=-1.
 RMSDP=1.78D-04 MaxDP=4.52D-03              OVMax= 2.24D-02

 Cycle   2  Pass 1  IDiag  1:
 RMSU=  1.78D-04    CP:  1.00D+00
 E= -7517.81977219848     Delta-E=       -0.000041559546 Rises=F Damp=F
 DIIS: error= 1.36D-03 at cycle   2 NSaved=   2.
 NSaved= 2 IEnMin= 2 EnMin= -7517.81977219848     IErMin= 2 ErrMin= 1.36D-03
 ErrMax= 1.36D-03  0.00D+00 EMaxC= 1.00D-01 BMatC= 1.54D-03 BMatP= 8.02D-03
 IDIUse=3 WtCom= 9.86D-01 WtEn= 1.36D-02
 Coeff-Com:  0.200D+00 0.800D+00
 Coeff-En:   0.488D+00 0.512D+00
 Coeff:      0.204D+00 0.796D+00
 Gap=     0.122 Goal=   None    Shift=    0.000
 RMSDP=2.11D-04 MaxDP=9.57D-03 DE=-4.16D-05 OVMax= 1.82D-02

 Cycle   3  Pass 1  IDiag  1:
 RMSU=  1.93D-04    CP:  9.99D-01  5.40D-01
 E= -7517.81772109133     Delta-E=        0.002051107158 Rises=F Damp=F
 DIIS: error= 1.98D-03 at cycle   3 NSaved=   3.
 NSaved= 3 IEnMin= 2 EnMin= -7517.81977219848     IErMin= 2 ErrMin= 1.36D-03
 ErrMax= 1.98D-03  0.00D+00 EMaxC= 1.00D-01 BMatC= 3.77D-03 BMatP= 1.54D-03
 IDIUse=3 WtCom= 1.83D-01 WtEn= 8.17D-01
 Coeff-Com:  0.866D-02 0.608D+00 0.383D+00
 Coeff-En:   0.000D+00 0.673D+00 0.327D+00
 Coeff:      0.159D-02 0.661D+00 0.337D+00
 Gap=     0.124 Goal=   None    Shift=    0.000
 RMSDP=1.22D-04 MaxDP=5.38D-03 DE= 2.05D-03 OVMax= 1.43D-02

 Cycle   4  Pass 1  IDiag  1:
 RMSU=  4.84D-05    CP:  9.99D-01  8.03D-01  4.79D-01
 E= -7517.82079939769     Delta-E=       -0.003078306368 Rises=F Damp=F
 DIIS: error= 4.71D-04 at cycle   4 NSaved=   4.
 NSaved= 4 IEnMin= 4 EnMin= -7517.82079939769     IErMin= 4 ErrMin= 4.71D-04
 ErrMax= 4.71D-04  0.00D+00 EMaxC= 1.00D-01 BMatC= 2.57D-04 BMatP= 1.54D-03
 IDIUse=3 WtCom= 9.95D-01 WtEn= 4.71D-03
 Coeff-Com:  0.193D-03 0.445D+00 0.237D+00 0.317D+00
 Coeff-En:   0.000D+00 0.114D+00 0.000D+00 0.886D+00
 Coeff:      0.192D-03 0.444D+00 0.236D+00 0.320D+00
 Gap=     0.124 Goal=   None    Shift=    0.000
 RMSDP=4.12D-05 MaxDP=2.47D-03 DE=-3.08D-03 OVMax= 4.60D-03

 Cycle   5  Pass 1  IDiag  1:
 RMSU=  1.41D-05    CP:  9.99D-01  8.61D-01  4.39D-01  2.52D-01
 E= -7517.82101628658     Delta-E=       -0.000216888884 Rises=F Damp=F
 DIIS: error= 1.09D-04 at cycle   5 NSaved=   5.
 NSaved= 5 IEnMin= 5 EnMin= -7517.82101628658     IErMin= 5 ErrMin= 1.09D-04
 ErrMax= 1.09D-04  0.00D+00 EMaxC= 1.00D-01 BMatC= 1.50D-05 BMatP= 2.57D-04
 IDIUse=3 WtCom= 9.99D-01 WtEn= 1.09D-03
 Coeff-Com: -0.989D-03 0.222D+00 0.108D+00 0.228D+00 0.443D+00
 Coeff-En:   0.000D+00 0.000D+00 0.000D+00 0.530D-01 0.947D+00
 Coeff:     -0.988D-03 0.222D+00 0.108D+00 0.228D+00 0.443D+00
 Gap=     0.124 Goal=   None    Shift=    0.000
 RMSDP=1.02D-05 MaxDP=5.58D-04 DE=-2.17D-04 OVMax= 1.23D-03

 Cycle   6  Pass 1  IDiag  1:
 RMSU=  4.37D-06    CP:  9.99D-01  8.71D-01  4.30D-01  3.90D-01  6.09D-01
 E= -7517.82103112538     Delta-E=       -0.000014838804 Rises=F Damp=F
 DIIS: error= 2.18D-05 at cycle   6 NSaved=   6.
 NSaved= 6 IEnMin= 6 EnMin= -7517.82103112538     IErMin= 6 ErrMin= 2.18D-05
 ErrMax= 2.18D-05  0.00D+00 EMaxC= 1.00D-01 BMatC= 7.17D-07 BMatP= 1.50D-05
 IDIUse=1 WtCom= 1.00D+00 WtEn= 0.00D+00
 Coeff-Com: -0.580D-03 0.103D+00 0.508D-01 0.114D+00 0.263D+00 0.470D+00
 Coeff:     -0.580D-03 0.103D+00 0.508D-01 0.114D+00 0.263D+00 0.470D+00
 Gap=     0.124 Goal=   None    Shift=    0.000
 RMSDP=3.66D-06 MaxDP=1.33D-04 DE=-1.48D-05 OVMax= 4.09D-04

 Cycle   7  Pass 1  IDiag  1:
 RMSU=  3.01D-06    CP:  9.99D-01  8.73D-01  4.32D-01  3.87D-01  6.68D-01
                    CP:  5.85D-01
 E= -7517.82103130115     Delta-E=       -0.000000175771 Rises=F Damp=F
 DIIS: error= 1.91D-05 at cycle   7 NSaved=   7.
 NSaved= 7 IEnMin= 7 EnMin= -7517.82103130115     IErMin= 7 ErrMin= 1.91D-05
 ErrMax= 1.91D-05  0.00D+00 EMaxC= 1.00D-01 BMatC= 5.24D-07 BMatP= 7.17D-07
 IDIUse=1 WtCom= 1.00D+00 WtEn= 0.00D+00
 Coeff-Com: -0.162D-03 0.106D-01 0.648D-02 0.193D-01 0.770D-01 0.452D+00
 Coeff-Com:  0.435D+00
 Coeff:     -0.162D-03 0.106D-01 0.648D-02 0.193D-01 0.770D-01 0.452D+00
 Coeff:      0.435D+00
 Gap=     0.124 Goal=   None    Shift=    0.000
 RMSDP=2.40D-06 MaxDP=9.88D-05 DE=-1.76D-07 OVMax= 2.72D-04

 Cycle   8  Pass 1  IDiag  1:
 RMSU=  1.01D-06    CP:  9.99D-01  8.75D-01  4.35D-01  3.89D-01  6.89D-01
                    CP:  9.01D-01  4.93D-01
 E= -7517.82103194152     Delta-E=       -0.000000640370 Rises=F Damp=F
 DIIS: error= 4.86D-06 at cycle   8 NSaved=   8.
 NSaved= 8 IEnMin= 8 EnMin= -7517.82103194152     IErMin= 8 ErrMin= 4.86D-06
 ErrMax= 4.86D-06  0.00D+00 EMaxC= 1.00D-01 BMatC= 5.14D-08 BMatP= 5.24D-07
 IDIUse=1 WtCom= 1.00D+00 WtEn= 0.00D+00
 Coeff-Com:  0.622D-05-0.145D-01-0.593D-02-0.933D-02-0.892D-03 0.216D+00
 Coeff-Com:  0.307D+00 0.508D+00
 Coeff:      0.622D-05-0.145D-01-0.593D-02-0.933D-02-0.892D-03 0.216D+00
 Coeff:      0.307D+00 0.508D+00
 Gap=     0.124 Goal=   None    Shift=    0.000
 RMSDP=7.21D-07 MaxDP=4.08D-05 DE=-6.40D-07 OVMax= 7.02D-05

 Cycle   9  Pass 1  IDiag  1:
 RMSU=  2.82D-07    CP:  9.99D-01  8.76D-01  4.36D-01  3.91D-01  6.96D-01
                    CP:  9.20D-01  6.21D-01  5.46D-01
 E= -7517.82103199766     Delta-E=       -0.000000056138 Rises=F Damp=F
 DIIS: error= 1.25D-06 at cycle   9 NSaved=   9.
 NSaved= 9 IEnMin= 9 EnMin= -7517.82103199766     IErMin= 9 ErrMin= 1.25D-06
 ErrMax= 1.25D-06  0.00D+00 EMaxC= 1.00D-01 BMatC= 3.07D-09 BMatP= 5.14D-08
 IDIUse=1 WtCom= 1.00D+00 WtEn= 0.00D+00
 Coeff-Com:  0.213D-04-0.948D-02-0.401D-02-0.714D-02-0.944D-02 0.753D-01
 Coeff-Com:  0.133D+00 0.286D+00 0.536D+00
 Coeff:      0.213D-04-0.948D-02-0.401D-02-0.714D-02-0.944D-02 0.753D-01
 Coeff:      0.133D+00 0.286D+00 0.536D+00
 Gap=     0.124 Goal=   None    Shift=    0.000
 RMSDP=1.81D-07 MaxDP=1.11D-05 DE=-5.61D-08 OVMax= 2.83D-05

 Cycle  10  Pass 1  IDiag  1:
 RMSU=  9.69D-08    CP:  9.99D-01  8.76D-01  4.36D-01  3.93D-01  7.02D-01
                    CP:  9.23D-01  6.23D-01  6.34D-01  8.08D-01
 E= -7517.82103200072     Delta-E=       -0.000000003056 Rises=F Damp=F
 DIIS: error= 2.58D-07 at cycle  10 NSaved=  10.
 NSaved=10 IEnMin=10 EnMin= -7517.82103200072     IErMin=10 ErrMin= 2.58D-07
 ErrMax= 2.58D-07  0.00D+00 EMaxC= 1.00D-01 BMatC= 1.17D-10 BMatP= 3.07D-09
 IDIUse=1 WtCom= 1.00D+00 WtEn= 0.00D+00
 Coeff-Com:  0.595D-05-0.186D-02-0.756D-03-0.149D-02-0.317D-02 0.643D-02
 Coeff-Com:  0.178D-01 0.508D-01 0.187D+00 0.745D+00
 Coeff:      0.595D-05-0.186D-02-0.756D-03-0.149D-02-0.317D-02 0.643D-02
 Coeff:      0.178D-01 0.508D-01 0.187D+00 0.745D+00
 Gap=     0.124 Goal=   None    Shift=    0.000
 RMSDP=7.15D-08 MaxDP=3.24D-06 DE=-3.06D-09 OVMax= 1.05D-05

 Cycle  11  Pass 1  IDiag  1:
 RMSU=  5.72D-08    CP:  9.99D-01  8.76D-01  4.36D-01  3.93D-01  7.02D-01
                    CP:  9.28D-01  6.28D-01  6.39D-01  8.94D-01  9.47D-01
 E= -7517.82103200054     Delta-E=        0.000000000180 Rises=F Damp=F
 DIIS: error= 5.31D-07 at cycle  11 NSaved=  11.
 NSaved=11 IEnMin=10 EnMin= -7517.82103200072     IErMin=10 ErrMin= 2.58D-07
 ErrMax= 5.31D-07  0.00D+00 EMaxC= 1.00D-01 BMatC= 1.75D-10 BMatP= 1.17D-10
 IDIUse=1 WtCom= 1.00D+00 WtEn= 0.00D+00
 Coeff-Com:  0.832D-06 0.211D-03 0.119D-03 0.873D-04-0.827D-03-0.811D-02
 Coeff-Com: -0.920D-02-0.100D-01 0.557D-01 0.616D+00 0.356D+00
 Coeff:      0.832D-06 0.211D-03 0.119D-03 0.873D-04-0.827D-03-0.811D-02
 Coeff:     -0.920D-02-0.100D-01 0.557D-01 0.616D+00 0.356D+00
 Gap=     0.124 Goal=   None    Shift=    0.000
 RMSDP=4.68D-08 MaxDP=1.88D-06 DE= 1.80D-10 OVMax= 6.03D-06

 Cycle  12  Pass 1  IDiag  1:
 RMSU=  2.02D-08    CP:  9.99D-01  8.76D-01  4.36D-01  3.93D-01  7.03D-01
                    CP:  9.29D-01  6.30D-01  6.42D-01  9.09D-01  1.11D+00
                    CP:  3.41D-01
 E= -7517.82103200077     Delta-E=       -0.000000000231 Rises=F Damp=F
 DIIS: error= 1.67D-07 at cycle  12 NSaved=  12.
 NSaved=12 IEnMin=12 EnMin= -7517.82103200077     IErMin=12 ErrMin= 1.67D-07
 ErrMax= 1.67D-07  0.00D+00 EMaxC= 1.00D-01 BMatC= 1.83D-11 BMatP= 1.17D-10
 IDIUse=1 WtCom= 1.00D+00 WtEn= 0.00D+00
 Coeff-Com: -0.531D-06 0.509D-03 0.234D-03 0.343D-03 0.507D-04-0.697D-02
 Coeff-Com: -0.990D-02-0.165D-01 0.345D-02 0.292D+00 0.270D+00 0.466D+00
 Coeff:     -0.531D-06 0.509D-03 0.234D-03 0.343D-03 0.507D-04-0.697D-02
 Coeff:     -0.990D-02-0.165D-01 0.345D-02 0.292D+00 0.270D+00 0.466D+00
 Gap=     0.124 Goal=   None    Shift=    0.000
 RMSDP=1.39D-08 MaxDP=6.71D-07 DE=-2.31D-10 OVMax= 1.99D-06

 Cycle  13  Pass 1  IDiag  1:
 RMSU=  7.61D-09    CP:  9.99D-01  8.76D-01  4.36D-01  3.93D-01  7.03D-01
                    CP:  9.30D-01  6.30D-01  6.43D-01  9.18D-01  1.13D+00
                    CP:  4.63D-01  5.93D-01
 E= -7517.82103200043     Delta-E=        0.000000000342 Rises=F Damp=F
 DIIS: error= 2.76D-08 at cycle  13 NSaved=  13.
 NSaved=13 IEnMin=12 EnMin= -7517.82103200077     IErMin=13 ErrMin= 2.76D-08
 ErrMax= 2.76D-08  0.00D+00 EMaxC= 1.00D-01 BMatC= 1.11D-12 BMatP= 1.83D-11
 IDIUse=1 WtCom= 1.00D+00 WtEn= 0.00D+00
 Coeff-Com: -0.385D-06 0.258D-03 0.118D-03 0.173D-03 0.144D-03-0.294D-02
 Coeff-Com: -0.450D-02-0.816D-02-0.614D-02 0.853D-01 0.116D+00 0.265D+00
 Coeff-Com:  0.554D+00
 Coeff:     -0.385D-06 0.258D-03 0.118D-03 0.173D-03 0.144D-03-0.294D-02
 Coeff:     -0.450D-02-0.816D-02-0.614D-02 0.853D-01 0.116D+00 0.265D+00
 Coeff:      0.554D+00
 Gap=     0.124 Goal=   None    Shift=    0.000
 RMSDP=4.38D-09 MaxDP=4.16D-07 DE= 3.42D-10 OVMax= 4.30D-07

 SCF Done:  E(RPBE1PBE) =  -7517.82103200     A.U. after   13 cycles
            NFock= 13  Conv=0.44D-08     -V/T= 2.1284
 KE= 6.662188536982D+03 PE=-2.481541085375D+04 EE= 7.023431687573D+03
 Leave Link  502 at Tue Mar  6 12:30:54 2018, MaxMem=   536870912 cpu:      2725.1
 (Enter /share/apps//mg09/l701.exe)
 Compute integral first derivatives.
 ... and contract with generalized density number  0.
   1 Symmetry operations used in ECPInt.
 ECPInt:  NShTT=   10440 NPrTT=   41973 LenC2=    9717 LenP2D=   27674.
 LDataN:  DoStor=T MaxTD1= 9 Len=  602
 Leave Link  701 at Tue Mar  6 12:31:21 2018, MaxMem=   536870912 cpu:        90.5
 (Enter /share/apps//mg09/l702.exe)
 L702 exits ... SP integral derivatives will be done elsewhere.
 Leave Link  702 at Tue Mar  6 12:31:21 2018, MaxMem=   536870912 cpu:         0.1
 (Enter /share/apps//mg09/l703.exe)
 Compute integral first derivatives, UseDBF=F ICtDFT=           0.
 Integral derivatives from FoFJK, PRISM(SPDF).
 Calling FoFJK, ICntrl=      2127 FMM=F ISym2X=0 I1Cent= 0 IOpClX= 0 NMat=1 NMatS=1 NMatT=0.
 FoFJK:  IHMeth= 1 ICntrl=    2127 DoSepK=F KAlg= 0 I1Cent=   0 FoldK=F
 IRaf=         0 NMat=   1 IRICut=       1 DoRegI=T DoRafI=F ISym2E= 0.
 FoFCou: FMM=F IPFlag=           0 FMFlag=      100000 FMFlg1=         800
         NFxFlg=           0 DoJE=F BraDBF=F KetDBF=F FulRan=T
         wScrn=  0.000000 ICntrl=    2127 IOpCl=  0 I1Cent=           0 NGrid=           0
         NMat0=    1 NMatS0=      1 NMatT0=    0 NMatD0=    1 NMtDS0=    0 NMtDT0=    0
 Symmetry not used in FoFCou.
 Defaulting to unpruned grid for atomic number  83.
 Defaulting to unpruned grid for atomic number  83.
 Defaulting to unpruned grid for atomic number  83.
 Defaulting to unpruned grid for atomic number  83.
 Leave Link  703 at Tue Mar  6 12:35:54 2018, MaxMem=   536870912 cpu:       970.7
 (Enter /share/apps//mg09/l716.exe)
 Dipole        =-3.89426508D-02 2.53522663D-01-7.34997095D-01
 ***** Axes restored to original set *****
 -------------------------------------------------------------------
 Center     Atomic                   Forces (Hartrees/Bohr)
 Number     Number              X              Y              Z
 -------------------------------------------------------------------
      1       32          -0.001118592   -0.007044910   -0.001562729
      2       32          -0.000988454    0.008030024    0.000210997
      3       32           0.007086973   -0.000318516   -0.006210364
      4       83          -0.001475213   -0.000980710    0.001445724
      5       83           0.002248474   -0.000642758    0.001890688
      6       50           0.000692662    0.001283509    0.003482367
      7       50          -0.007249341   -0.000207928   -0.002569764
      8       83           0.001583832    0.000046110    0.001545088
      9       83          -0.000780341   -0.000164821    0.001767992
 -------------------------------------------------------------------
 Cartesian Forces:  Max     0.008030024 RMS     0.003356076
 Leave Link  716 at Tue Mar  6 12:35:54 2018, MaxMem=   536870912 cpu:         0.1
 (Enter /share/apps//mg09/l103.exe)

 GradGradGradGradGradGradGradGradGradGradGradGradGradGradGradGradGradGrad
 Berny optimization.
 Search for a local minimum.
 Step number   2 out of a maximum of  100
 All quantities printed in internal units (Hartrees-Bohrs-Radians)
 Update second derivatives using D2CorN and points    1    2
 DE= -5.75D-03 DEPred=-4.20D-03 R= 1.37D+00
 TightC=F SS=  1.41D+00  RLast= 2.20D-01 DXNew= 5.0454D-01 6.5953D-01
 Trust test= 1.37D+00 RLast= 2.20D-01 DXMaxT set to 5.05D-01
 ITU=  1  0
     Eigenvalues ---    0.07909   0.09527   0.11902   0.12427   0.12765
     Eigenvalues ---    0.13667   0.14431   0.15010   0.15624   0.16532
     Eigenvalues ---    0.17890   0.22131   0.23250   0.23400   0.24423
     Eigenvalues ---    0.25026   0.26443   0.28384   0.29519   0.30664
     Eigenvalues ---    0.31771
 RFO step:  Lambda=-4.75032309D-04 EMin= 7.90948177D-02
 Quartic linear search produced a step of  0.63735.
 TrRot=  0.000137  0.000009  0.000129  0.000018  0.000014  0.000018
 MatCor failed.
 Variable       Old X    -DE/DX   Delta X   Delta X   Delta X     New X
                                 (Linear)    (Quad)   (Total)
    X1        0.28541  -0.00112  -0.00429  -0.00534  -0.00959   0.27582
    Y1        4.19170  -0.00704  -0.05293  -0.00985  -0.06276   4.12894
    Z1        3.22673  -0.00156  -0.01710   0.00379  -0.01319   3.21354
    X2        0.40740  -0.00099  -0.00399  -0.00121  -0.00488   0.40252
    Y2       -4.29658   0.00803   0.05601   0.01301   0.06904  -4.22754
    Z2        2.54917   0.00021  -0.00768   0.01123   0.00367   2.55284
    X3       -2.01875   0.00709   0.03539   0.01287   0.04847  -1.97028
    Y3       -0.21410  -0.00032   0.00095  -0.00135  -0.00046  -0.21456
    Z3        4.48727  -0.00621  -0.03761  -0.00969  -0.04714   4.44013
    X4        3.69770  -0.00148  -0.03402   0.00661  -0.02720   3.67050
    Y4       -2.52357  -0.00098   0.01556  -0.02030  -0.00460  -2.52817
    Z4       -1.42028   0.00145   0.01599  -0.00156   0.01450  -1.40578
    X5       -4.03579   0.00225   0.03617  -0.00602   0.03039  -4.00541
    Y5       -2.68488  -0.00064   0.01857  -0.01605   0.00239  -2.68249
    Z5        0.02026   0.00189   0.00460   0.00555   0.01033   0.03059
    X6       -0.87666   0.00069   0.00847  -0.00185   0.00672  -0.86994
[...]
     X        X   X     X          X     X  X X           X       X                                                                  
     X        X   X     X                X  X X           X                                                                          
     X        X   X     X                X  X X           X                                                                          
     X        X   X     X                   X X           X                                                                          
     X        X   X     X                   X X                                                                                      
     X        X         X                   X X                                                                                      
     X        X                             X X                                                                                      
     X        X                             X X                                                                                      
     X        X                                                                                                                      
              X                                                                                                                      
              X                                                                                                                      
              X                                                                                                                      
              X                                                                                                                      
              X                                                                                                                      
              X                                                                                                                      
 
 ***** Axes restored to original set *****
 -------------------------------------------------------------------
 Center     Atomic                   Forces (Hartrees/Bohr)
 Number     Number              X              Y              Z
 -------------------------------------------------------------------
      1       32           0.000031610   -0.000039634    0.000010977
      2       32           0.000012292    0.000035394    0.000012985
      3       32          -0.000005536   -0.000079395    0.000065817
      4       83           0.000035339   -0.000004449   -0.000009571
      5       83           0.000052155   -0.000024107    0.000026590
      6       50          -0.000043597    0.000003007   -0.000024413
      7       50          -0.000050736   -0.000002771   -0.000048983
      8       83          -0.000050462    0.000049081   -0.000038587
      9       83           0.000018935    0.000062874    0.000005186
 -------------------------------------------------------------------
 Cartesian Forces:  Max     0.000079395 RMS     0.000037794
 Force constants in Cartesian coordinates: 
                1             2             3             4             5 
      1  0.480764D-01
      2 -0.130462D-02  0.716165D-01
      3  0.940730D-02  0.123251D-01  0.599259D-01
      4 -0.673741D-02 -0.121711D-02  0.944357D-03  0.653639D-01
      5  0.708977D-03 -0.382894D-02  0.138552D-02 -0.123721D-03  0.719620D-01
      6  0.136466D-02 -0.151070D-02 -0.255081D-02  0.185456D-02 -0.274395D-02
      7 -0.449329D-02 -0.101912D-01  0.398728D-02 -0.572157D-02  0.944835D-02
      8 -0.130253D-01 -0.276087D-01  0.704373D-02  0.121769D-01 -0.228756D-01
      9  0.300665D-02  0.140985D-02 -0.254012D-02  0.894566D-02 -0.553990D-02
     10  0.364050D-03 -0.221420D-03 -0.929409D-03 -0.124544D-01 -0.337190D-02
     11  0.569224D-02 -0.180696D-02 -0.310726D-02 -0.502391D-02 -0.685099D-02
     12  0.890936D-03 -0.893868D-03 -0.161745D-02  0.171860D-01  0.458407D-02
     13  0.386306D-04 -0.113415D-03  0.632614D-03 -0.304253D-01  0.535855D-02
     14 -0.616750D-02 -0.283334D-02 -0.203860D-02  0.830878D-02 -0.509621D-02
     15 -0.147767D-02 -0.118304D-02 -0.197848D-02 -0.193221D-01  0.328220D-02
     16 -0.767804D-03 -0.134013D-03 -0.441180D-03 -0.941453D-03 -0.248524D-03
     17 -0.107642D-02 -0.480157D-03 -0.470796D-02  0.588745D-03  0.720693D-03
     18 -0.349246D-03  0.119211D-02 -0.221704D-02  0.421212D-05 -0.172639D-02
     19 -0.105499D-01  0.153766D-01 -0.414782D-02 -0.112236D-01 -0.127748D-01
     20  0.185858D-01 -0.229593D-01  0.227762D-02 -0.166768D-01 -0.212558D-01
     21 -0.301981D-02 -0.853011D-03  0.599483D-03 -0.772618D-02 -0.309590D-02
     22 -0.202960D-01 -0.355048D-02 -0.220027D-01  0.129357D-02 -0.201176D-03
     23 -0.402256D-02 -0.535741D-02 -0.765310D-02  0.891001D-02 -0.670535D-02
     24 -0.222824D-01 -0.617320D-02 -0.228156D-01 -0.825352D-03  0.245674D-02
     25 -0.563472D-02  0.135560D-02  0.125495D-01  0.846271D-03  0.120423D-02
     26  0.609349D-03 -0.674168D-02 -0.552503D-02 -0.694293D-02 -0.606974D-02
     27  0.124596D-01 -0.431324D-02 -0.268059D-01 -0.106116D-02  0.139761D-02
                6             7             8             9            10 
      6  0.400285D-01
      7  0.746319D-02  0.548545D-01
      8 -0.117878D-01  0.873741D-02  0.583017D-01
      9 -0.472638D-02 -0.110862D-01  0.125343D-01  0.581438D-01
     10  0.150036D-01 -0.503781D-02 -0.286254D-03 -0.354535D-03  0.566597D-01
     11  0.496880D-02 -0.333991D-02 -0.227799D-02 -0.638494D-03 -0.204538D-01
     12 -0.177587D-01  0.325731D-02 -0.298900D-02 -0.469478D-02 -0.657912D-02
     13 -0.164199D-01 -0.555336D-02 -0.764966D-02 -0.818573D-02 -0.582199D-02
     14  0.402961D-02 -0.106264D-01 -0.537357D-02 -0.119681D-01  0.403533D-02
     15 -0.813184D-02 -0.100217D-01 -0.110247D-01 -0.223605D-01  0.296665D-02
     16 -0.634596D-03  0.138701D-02  0.303347D-02  0.525475D-02 -0.250534D-01
     17  0.408127D-02  0.213981D-02 -0.232900D-02  0.149557D-02  0.113693D-01
     18 -0.194599D-02 -0.261437D-02 -0.716947D-03 -0.631229D-02 -0.149828D-01
     19 -0.664830D-02 -0.290184D-01 -0.200702D-02  0.391612D-03 -0.160091D-02
     20 -0.715408D-02 -0.119534D-02  0.379822D-02 -0.130195D-02  0.287581D-02
     21  0.969540D-03  0.646682D-02 -0.104929D-02 -0.255787D-02 -0.211809D-03
     22  0.304248D-02 -0.552155D-03  0.175764D-02  0.606145D-03 -0.385555D-02
     23  0.407813D-02  0.324506D-02 -0.234043D-02  0.403966D-02 -0.728593D-03
     24 -0.379765D-02 -0.101229D-02  0.240172D-02 -0.782315D-02  0.303050D-02
     25 -0.502576D-02 -0.586491D-02 -0.273726D-02  0.142169D-02 -0.319962D-02
     26  0.603868D-02  0.178215D-02  0.705288D-03 -0.308745D-04  0.678155D-02
     27 -0.208664D-02  0.356006D-02  0.558795D-02 -0.712869D-02  0.205691D-02
               11            12            13            14            15 
     11  0.640699D-01
     12  0.523448D-02  0.635093D-01
     13 -0.263718D-02 -0.957404D-03  0.661779D-01
     14  0.313878D-03  0.164599D-02  0.193820D-01  0.689532D-01
     15  0.332252D-02 -0.965364D-03  0.122739D-01 -0.481418D-02  0.571184D-01
     16  0.109526D-01 -0.161106D-01 -0.119680D-01 -0.963941D-02  0.149150D-01
     17 -0.451507D-02  0.325125D-02 -0.944767D-02 -0.558564D-02  0.682401D-02
     18  0.327410D-02 -0.119934D-01  0.138740D-01  0.746975D-02 -0.225604D-01
     19  0.404677D-02  0.659109D-03 -0.486922D-02  0.290462D-02 -0.141787D-02
     20 -0.420846D-02 -0.133064D-01 -0.428706D-03 -0.269512D-02 -0.237109D-02
     21 -0.144312D-01 -0.272550D-01  0.489995D-03 -0.114031D-02 -0.389250D-02
     22  0.316553D-02 -0.206745D-02 -0.453833D-02 -0.447119D-02 -0.273793D-02
     23 -0.280376D-02  0.126156D-02 -0.525969D-02 -0.446466D-01  0.429929D-02
     24 -0.275475D-02  0.320040D-02 -0.104006D-02  0.802536D-02 -0.163892D-03
     25  0.759771D-02  0.372116D-02 -0.304038D-02 -0.372622D-02  0.482169D-02
     26 -0.419205D-01  0.121190D-02  0.795804D-03 -0.303654D-02  0.166497D-02
     27  0.413179D-02 -0.242495D-02 -0.667468D-03 -0.120948D-02  0.293467D-02
               16            17            18            19            20 
     16  0.522573D-01
     17  0.548372D-03  0.297420D-01
     18  0.346741D-02  0.704193D-02  0.673481D-01
     19  0.358916D-03 -0.130708D-02  0.796469D-03  0.643562D-01
     20 -0.232564D-02 -0.241150D-02  0.378859D-03 -0.310187D-02  0.523074D-01
     21 -0.651391D-02  0.111718D-02 -0.341744D-02  0.146806D-01  0.127007D-01
     22 -0.670455D-02  0.108484D-01  0.474659D-02 -0.643259D-02  0.331724D-02
     23  0.907526D-02 -0.703331D-02 -0.103666D-01 -0.224502D-02  0.192407D-03
     24  0.318341D-02 -0.117588D-01 -0.109866D-01 -0.226011D-02  0.354637D-02
     25 -0.856808D-02 -0.136634D-01 -0.494222D-02 -0.102047D-02 -0.105047D-02
     26 -0.112621D-01 -0.810805D-02 -0.654680D-02 -0.892221D-03 -0.276776D-02
     27 -0.312037D-02 -0.734444D-02 -0.791493D-02 -0.205369D-02  0.522992D-02
               21            22            23            24            25 
     21  0.498307D-01
     22 -0.126820D-02  0.692102D-01
     23  0.393350D-03 -0.938716D-02  0.731541D-01
     24 -0.477980D-02  0.147837D-01  0.310754D-02  0.443914D-01
     25 -0.289750D-02 -0.281247D-01  0.412691D-03  0.642265D-02  0.546066D-01
     26  0.635844D-02 -0.147878D-02 -0.445964D-02  0.114902D-02  0.106071D-01
     27 -0.949704D-02  0.489736D-02  0.840180D-03  0.277501D-02 -0.160712D-01
               26            27 
     26  0.723987D-01
     27 -0.432030D-02  0.501484D-01
 Leave Link  716 at Tue Mar  6 16:04:55 2018, MaxMem=   536870912 cpu:         0.1
 (Enter /share/apps//mg09/l103.exe)

 GradGradGradGradGradGradGradGradGradGradGradGradGradGradGradGradGradGrad
 Berny optimization.
 Search for a local minimum.
 Step number   1 out of a maximum of    2
 All quantities printed in internal units (Hartrees-Bohrs-Radians)
 Second derivative matrix not updated -- analytic derivatives used.
 ITU=  0
     Eigenvalues ---    0.00614   0.01303   0.03344   0.03817   0.04254
     Eigenvalues ---    0.05113   0.05618   0.05711   0.05886   0.06309
     Eigenvalues ---    0.06613   0.06961   0.07966   0.08890   0.10162
     Eigenvalues ---    0.10891   0.11888   0.12068   0.13088   0.13499
     Eigenvalues ---    0.14223
 Angle between quadratic step and forces=  47.05 degrees.
 Linear search not attempted -- first point.
 TrRot= -0.000011 -0.000038  0.000040  0.000004  0.000002  0.000004
 Variable       Old X    -DE/DX   Delta X   Delta X   Delta X     New X
                                 (Linear)    (Quad)   (Total)
    X1        0.24154   0.00003   0.00000  -0.00070  -0.00074   0.24081
    Y1        4.11210  -0.00004   0.00000  -0.00081  -0.00085   4.11125
    Z1        3.22422   0.00001   0.00000   0.00000   0.00004   3.22426
    X2        0.39402   0.00001   0.00000  -0.00007  -0.00004   0.39398
    Y2       -4.20758   0.00004   0.00000   0.00037   0.00034  -4.20724
    Z2        2.57028   0.00001   0.00000   0.00016   0.00020   2.57048
    X3       -1.94036  -0.00001   0.00000   0.00021   0.00021  -1.94014
    Y3       -0.22387  -0.00008   0.00000  -0.00150  -0.00155  -0.22542
    Z3        4.41640   0.00007   0.00000   0.00169   0.00174   4.41814
    X4        3.67134   0.00004   0.00000   0.00037   0.00038   3.67172
    Y4       -2.55936   0.00000   0.00000  -0.00018  -0.00019  -2.55955
    Z4       -1.41079  -0.00001   0.00000  -0.00020  -0.00017  -1.41095
    X5       -4.02032   0.00005   0.00000   0.00028   0.00029  -4.02003
    Y5       -2.69503  -0.00002   0.00000   0.00091   0.00084  -2.69418
    Z5        0.03421   0.00003   0.00000   0.00070   0.00075   0.03496
    X6       -0.86902  -0.00004   0.00000  -0.00047  -0.00048  -0.86950
    Y6       -0.88451   0.00000   0.00000  -0.00057  -0.00061  -0.88512
    Z6       -4.36581  -0.00002   0.00000  -0.00003   0.00001  -4.36580
    X7        3.46255  -0.00005   0.00000  -0.00041  -0.00041   3.46214
    Y7       -0.06559   0.00000   0.00000   0.00039   0.00038  -0.06521
    Z7        3.75333  -0.00005   0.00000  -0.00109  -0.00105   3.75227
    X8       -3.26355  -0.00005   0.00000   0.00019   0.00015  -3.26339
    Y8        2.89403   0.00005   0.00000   0.00121   0.00115   2.89518
    Z8       -0.53872  -0.00004   0.00000  -0.00208  -0.00203  -0.54076
    X9        2.54960   0.00002   0.00000   0.00068   0.00064   2.55024
    Y9        3.02272   0.00006   0.00000   0.00051   0.00049   3.02321
    Z9       -1.56713   0.00001   0.00000   0.00049   0.00052  -1.56661
         Item               Value     Threshold  Converged?
 Maximum Force            0.000079     0.000450     YES
 RMS     Force            0.000038     0.000300     YES
 Maximum Displacement     0.002034     0.001800     NO 
 RMS     Displacement     0.000790     0.001200     YES
 Predicted change in Energy=-2.790526D-07
 GradGradGradGradGradGradGradGradGradGradGradGradGradGradGradGradGradGrad

 Leave Link  103 at Tue Mar  6 16:04:55 2018, MaxMem=   536870912 cpu:         0.0
 (Enter /share/apps//mg09/l9999.exe)
 1\1\GINC-COMPUTE-0-1\Freq\RPBE1PBE\def2TZVP\Bi4Ge3Sn2\RODRIGO\06-Mar-2
 018\0\\#P Geom=AllCheck Guess=TCheck SCRF=Check GenChk RPBE1PBE/def2TZ
 VP Freq\\01Final_coords.xyz_22\\0,1\Ge,0.1278185022,2.1760275932,1.706
 1831575\Ge,0.208507274,-2.2265536061,1.3601342857\Ge,-1.0267917275,-0.
 1184648401,2.337057313\Bi,1.9427905163,-1.3543538036,-0.7465566988\Bi,
 -2.1274598191,-1.4261459495,0.0181040291\Sn,-0.4598642734,-0.468061394
 8,-2.3102859817\Sn,1.8323026191,-0.0347072834,1.9861758838\Bi,-1.72699
 51459,1.5314573058,-0.2850803953\Bi,1.3491910547,1.5995559784,-0.82928
 85935\\Version=ES64L-G09RevD.01\State=1-A\HF=-7517.8226797\RMSD=6.849e
 -09\RMSF=3.779e-05\ZeroPoint=0.0058497\Thermal=0.0233019\Dipole=-0.033
 0475,0.2543826,-0.7697731\DipoleDeriv=-0.1819138,0.0325637,-0.020184,0
 .0000947,0.1059038,0.1867983,-0.0355025,0.120797,-0.049156,-0.2169231,
 -0.0199787,-0.0027378,0.0179673,0.0003171,-0.0913294,0.0055021,-0.0658
 538,0.0131104,-0.0075842,-0.0547018,-0.095589,-0.0637043,-0.0912682,-0
 .0394243,0.02521,-0.0562207,-0.0220124,0.0067566,-0.0602982,-0.1393588
 ,-0.0015104,-0.0718534,0.0276974,-0.0567623,0.0246429,-0.22061,0.06462
 21,0.0571557,0.0176392,0.0057846,-0.0672753,0.0174511,-0.0610591,-0.01
 00151,-0.1899235,-0.0455885,0.0085633,0.0615687,-0.0051316,0.0234111,-
 0.0006973,0.0832105,0.0437085,0.3155816,0.2142346,0.0309016,0.2316811,
 0.0424707,0.0175647,-0.0201896,0.0779839,-0.0479909,0.1873139,0.082669
 8,0.0074138,-0.0498335,0.0044438,0.0444956,-0.0332781,-0.0571193,0.006
 7399,-0.0043787,0.0837265,-0.0016193,-0.0031857,-0.0004149,0.0387047,-
 0.0470282,0.0185367,-0.015808,-0.0299254\Polar=381.0123404,0.2066307,3
 66.8270344,10.2005291,5.7597455,384.2823209\PG=C01 [X(Bi4Ge3Sn2)]\NIma
 g=0\\0.04807640,-0.00130462,0.07161652,0.00940730,0.01232509,0.0599259
 2,-0.00673741,-0.00121711,0.00094436,0.06536395,0.00070898,-0.00382894
 ,0.00138552,-0.00012372,0.07196195,0.00136466,-0.00151070,-0.00255081,
 0.00185456,-0.00274395,0.04002848,-0.00449329,-0.01019115,0.00398728,-
 0.00572157,0.00944835,0.00746319,0.05485446,-0.01302526,-0.02760868,0.
 00704373,0.01217694,-0.02287557,-0.01178776,0.00873741,0.05830172,0.00
 300665,0.00140985,-0.00254012,0.00894566,-0.00553990,-0.00472638,-0.01
 108625,0.01253429,0.05814380,0.00036405,-0.00022142,-0.00092941,-0.012
 45443,-0.00337190,0.01500362,-0.00503781,-0.00028625,-0.00035453,0.056
 65966,0.00569224,-0.00180696,-0.00310726,-0.00502391,-0.00685099,0.004
 96880,-0.00333991,-0.00227799,-0.00063849,-0.02045383,0.06406990,0.000
 89094,-0.00089387,-0.00161745,0.01718601,0.00458407,-0.01775871,0.0032
 5731,-0.00298900,-0.00469478,-0.00657912,0.00523448,0.06350928,0.00003
 863,-0.00011341,0.00063261,-0.03042531,0.00535855,-0.01641985,-0.00555
 336,-0.00764966,-0.00818573,-0.00582199,-0.00263718,-0.00095740,0.0661
 7792,-0.00616750,-0.00283334,-0.00203860,0.00830878,-0.00509621,0.0040
 2961,-0.01062638,-0.00537357,-0.01196815,0.00403533,0.00031388,0.00164
 599,0.01938196,0.06895317,-0.00147767,-0.00118304,-0.00197848,-0.01932
 211,0.00328220,-0.00813184,-0.01002175,-0.01102468,-0.02236052,0.00296
 665,0.00332252,-0.00096536,0.01227394,-0.00481418,0.05711836,-0.000767
 80,-0.00013401,-0.00044118,-0.00094145,-0.00024852,-0.00063460,0.00138
 701,0.00303347,0.00525475,-0.02505341,0.01095256,-0.01611055,-0.011967
 96,-0.00963941,0.01491505,0.05225732,-0.00107642,-0.00048016,-0.004707
 96,0.00058875,0.00072069,0.00408127,0.00213981,-0.00232900,0.00149557,
 0.01136931,-0.00451507,0.00325125,-0.00944767,-0.00558564,0.00682401,0
 .00054837,0.02974204,-0.00034925,0.00119211,-0.00221704,0.00000421,-0.
 00172639,-0.00194599,-0.00261437,-0.00071695,-0.00631229,-0.01498280,0
 .00327410,-0.01199337,0.01387396,0.00746975,-0.02256044,0.00346741,0.0
 0704193,0.06734814,-0.01054988,0.01537660,-0.00414782,-0.01122363,-0.0
 1277478,-0.00664830,-0.02901840,-0.00200702,0.00039161,-0.00160091,0.0
 0404677,0.00065911,-0.00486922,0.00290462,-0.00141787,0.00035892,-0.00
 130708,0.00079647,0.06435618,0.01858579,-0.02295934,0.00227762,-0.0166
 7682,-0.02125583,-0.00715408,-0.00119534,0.00379822,-0.00130195,0.0028
 7581,-0.00420846,-0.01330638,-0.00042871,-0.00269512,-0.00237109,-0.00
 232564,-0.00241150,0.00037886,-0.00310187,0.05230738,-0.00301981,-0.00
 085301,0.00059948,-0.00772618,-0.00309590,0.00096954,0.00646682,-0.001
 04929,-0.00255787,-0.00021181,-0.01443120,-0.02725505,0.00049000,-0.00
 114031,-0.00389250,-0.00651391,0.00111718,-0.00341744,0.01468059,0.012
 70073,0.04983068,-0.02029598,-0.00355048,-0.02200267,0.00129357,-0.000
 20118,0.00304248,-0.00055215,0.00175764,0.00060614,-0.00385555,0.00316
 553,-0.00206745,-0.00453833,-0.00447119,-0.00273793,-0.00670455,0.0108
 4837,0.00474659,-0.00643259,0.00331724,-0.00126820,0.06921023,-0.00402
 256,-0.00535741,-0.00765310,0.00891001,-0.00670535,0.00407813,0.003245
 06,-0.00234043,0.00403966,-0.00072859,-0.00280376,0.00126156,-0.005259
 69,-0.04464663,0.00429929,0.00907526,-0.00703331,-0.01036662,-0.002245
 02,0.00019241,0.00039335,-0.00938716,0.07315413,-0.02228241,-0.0061732
 0,-0.02281563,-0.00082535,0.00245674,-0.00379765,-0.00101229,0.0024017
 2,-0.00782315,0.00303050,-0.00275475,0.00320040,-0.00104006,0.00802536
 ,-0.00016389,0.00318341,-0.01175880,-0.01098664,-0.00226011,0.00354637
 ,-0.00477980,0.01478368,0.00310754,0.04439135,-0.00563472,0.00135560,0
 .01254953,0.00084627,0.00120423,-0.00502576,-0.00586491,-0.00273726,0.
 00142169,-0.00319962,0.00759771,0.00372116,-0.00304038,-0.00372622,0.0
 0482169,-0.00856808,-0.01366342,-0.00494222,-0.00102047,-0.00105047,-0
 .00289750,-0.02812466,0.00041269,0.00642265,0.05460656,0.00060935,-0.0
 0674168,-0.00552503,-0.00694293,-0.00606974,0.00603868,0.00178215,0.00
 070529,-0.00003087,0.00678155,-0.04192054,0.00121190,0.00079580,-0.003
 03654,0.00166497,-0.01126207,-0.00810805,-0.00654680,-0.00089222,-0.00
 276776,0.00635844,-0.00147878,-0.00445964,0.00114902,0.01060714,0.0723
 9866,0.01245960,-0.00431324,-0.02680587,-0.00106116,0.00139761,-0.0020
 8664,0.00356006,0.00558795,-0.00712869,0.00205691,0.00413179,-0.002424
 95,-0.00066747,-0.00120948,0.00293467,-0.00312037,-0.00734444,-0.00791
 493,-0.00205369,0.00522992,-0.00949704,0.00489736,0.00084018,0.0027750
 1,-0.01607123,-0.00432030,0.05014843\\-0.00003161,0.00003963,-0.000010
 98,-0.00001229,-0.00003539,-0.00001298,0.00000554,0.00007939,-0.000065
 82,-0.00003534,0.00000445,0.00000957,-0.00005215,0.00002411,-0.0000265
 9,0.00004360,-0.00000301,0.00002441,0.00005074,0.00000277,0.00004898,0
 .00005046,-0.00004908,0.00003859,-0.00001893,-0.00006287,-0.00000519\\
 \@


 THE PROGRESS OF RIVERS TO THE SEA IS NOT AS RAPID
 AS THAT OF MAN TO ERROR.
                                              -- VOLTAIRE
 Job cpu time:       0 days  4 hours 44 minutes  4.3 seconds.
 File lengths (MBytes):  RWF=    299 Int=      0 D2E=      0 Chk=     16 Scr=      1
 Normal termination of Gaussian 09 at Tue Mar  6 16:04:57 2018.
