 Entering Gaussian System, Link 0=/share/apps/mg09/g09
 Initial command:
 /share/apps//mg09/l1.exe "/state/partition1/gauss_tmp/Gau-12492.inp" -scrdir="/state/partition1/gauss_tmp/"
 Entering Link 1 = /share/apps//mg09/l1.exe PID=     12502.
  
 Copyright (c) 1988,1990,1992,1993,1995,1998,2003,2009,2013,
            Gaussian, Inc.  All Rights Reserved.
  
 This is part of the Gaussian(R) 09 program.  It is based on
 the Gaussian(R) 03 system (copyright 2003, Gaussian, Inc.),
 the Gaussian(R) 98 system (copyright 1998, Gaussian, Inc.),
 the Gaussian(R) 94 system (copyright 1995, Gaussian, Inc.),
 the Gaussian 92(TM) system (copyright 1992, Gaussian, Inc.),
 the Gaussian 90(TM) system (copyright 1990, Gaussian, Inc.),
 the Gaussian 88(TM) system (copyright 1988, Gaussian, Inc.),
 the Gaussian 86(TM) system (copyright 1986, Carnegie Mellon
 University), and the Gaussian 82(TM) system (copyright 1983,
 Carnegie Mellon University). Gaussian is a federally registered
 trademark of Gaussian, Inc.
  
 This software contains proprietary and confidential information,
 including trade secrets, belonging to Gaussian, Inc.
  
 This software is provided under written license and may be
 used, copied, transmitted, or stored only in accord with that
 written license.
  
 The following legend is applicable only to US Government
 contracts under FAR:
  
                    RESTRICTED RIGHTS LEGEND
  
 Use, reproduction and disclosure by the US Government is
 subject to restrictions as set forth in subparagraphs (a)
 and (c) of the Commercial Computer Software - Restricted
 Rights clause in FAR 52.227-19.
  
 Gaussian, Inc.
 340 Quinnipiac St., Bldg. 40, Wallingford CT 06492
  
  
 ---------------------------------------------------------------
 Warning -- This program may not be used in any manner that
 competes with the business of Gaussian, Inc. or will provide
 assistance to any competitor of Gaussian, Inc.  The licensee
 of this program is prohibited from giving any competitor of
 Gaussian, Inc. access to this program.  By using this program,
 the user acknowledges that Gaussian, Inc. is engaged in the
 business of creating and licensing software in the field of
 computational chemistry and represents and warrants to the
 licensee that it is not a competitor of Gaussian, Inc. and that
 it will not use this program in any manner prohibited above.
 ---------------------------------------------------------------
  

 Cite this work as:
 Gaussian 09, Revision D.01,
 M. J. Frisch, G. W. Trucks, H. B. Schlegel, G. E. Scuseria, 
 M. A. Robb, J. R. Cheeseman, G. Scalmani, V. Barone, B. Mennucci, 
 G. A. Petersson, H. Nakatsuji, M. Caricato, X. Li, H. P. Hratchian, 
 A. F. Izmaylov, J. Bloino, G. Zheng, J. L. Sonnenberg, M. Hada, 
 M. Ehara, K. Toyota, R. Fukuda, J. Hasegawa, M. Ishida, T. Nakajima, 
 Y. Honda, O. Kitao, H. Nakai, T. Vreven, J. A. Montgomery, Jr., 
 J. E. Peralta, F. Ogliaro, M. Bearpark, J. J. Heyd, E. Brothers, 
 K. N. Kudin, V. N. Staroverov, T. Keith, R. Kobayashi, J. Normand, 
 K. Raghavachari, A. Rendell, J. C. Burant, S. S. Iyengar, J. Tomasi, 
 M. Cossi, N. Rega, J. M. Millam, M. Klene, J. E. Knox, J. B. Cross, 
 V. Bakken, C. Adamo, J. Jaramillo, R. Gomperts, R. E. Stratmann, 
 O. Yazyev, A. J. Austin, R. Cammi, C. Pomelli, J. W. Ochterski, 
 R. L. Martin, K. Morokuma, V. G. Zakrzewski, G. A. Voth, 
 P. Salvador, J. J. Dannenberg, S. Dapprich, A. D. Daniels, 
 O. Farkas, J. B. Foresman, J. V. Ortiz, J. Cioslowski, 
 and D. J. Fox, Gaussian, Inc., Wallingford CT, 2013.
 
 ******************************************
 Gaussian 09:  ES64L-G09RevD.01 24-Apr-2013
                 6-Mar-2018 
 ******************************************
 %NProcShared=4
 Will use up to    4 processors via shared memory.
 %LindaWorkers=compute-0-4
 %chk=Isomer_18.chk
 %NProc=4
 Will use up to    4 processors via shared memory.
 %mem=4GB
 SetLPE:  input flags=" -vv -opt "Tsnet.Node.lindarsharg: ssh" "
 SetLPE:    new flags=" -vv -opt "Tsnet.Node.lindarsharg: ssh"  -nodelist 'compute-0-4.local'"
 Will use up to    1 processors via Linda.
 ----------------------------------------------------------------------
 #p PBE1PBE/Def2TZVP scf=(maxcycle=768) opt=(cartesian,maxcycle=512) fr
 eq
 ----------------------------------------------------------------------
 1/6=512,10=7,14=-1,18=10,26=3,38=1/1,3;
 2/12=2,17=6,18=5,29=2,40=1/2;
 3/5=44,7=101,11=2,16=1,25=1,30=1,71=1,74=-13/1,2,3;
 4//1;
 5/5=2,7=768,38=5/2;
 6/7=2,8=2,9=2,10=2,28=1/1;
 7/7=1,29=1/1,2,3,16;
 1/6=512,10=7,14=-1,18=10,26=3/3(2);
 2/29=1/2;
 99/12=1/99;
 2/29=1/2;
 3/5=44,7=101,11=2,16=1,25=1,30=1,71=1,74=-13/1,2,3;
 4/5=5,16=3,69=1/1;
 5/5=2,7=768,38=5/2;
 7/7=1/1,2,3,16;
 1/6=512,14=-1,18=10,26=3/3(-5);
 2/29=1/2;
 6/7=2,8=2,9=2,10=2,19=2,28=1/1;
 99/9=1,12=1/99;
 Leave Link    1 at Tue Mar  6 11:56:29 2018, MaxMem=   536870912 cpu:         0.5
 (Enter /share/apps//mg09/l101.exe)
 ---------------------
 01Final_coords.xyz_18
 ---------------------
 Symbolic Z-matrix:
 Charge =  0 Multiplicity = 1
 83                    2.12329   1.14973   0.67144 
 83                   -2.12166   1.1567   -0.66085 
 32                    0.00325   2.90432   0.00523 
 83                   -1.87966  -1.25632   1.16172 
 50                    1.05814  -1.50462   1.81366 
 50                   -1.06429  -1.48637  -1.82993 
 32                   -0.46624   1.13779   2.16701 
 83                    1.87941  -1.25012  -1.16698 
 32                    0.46901   1.15008  -2.16063 
 
 NAtoms=      9 NQM=        9 NQMF=       0 NMMI=      0 NMMIF=      0
                NMic=       0 NMicF=      0.
                    Isotopes and Nuclear Properties:
 (Nuclear quadrupole moments (NQMom) in fm**2, nuclear magnetic moments (NMagM)
  in nuclear magnetons)

  Atom         1           2           3           4           5           6           7           8           9
 IAtWgt=         209         209          74         209         118         118          74         209          74
 AtmWgt= 208.9804000 208.9804000  73.9211788 208.9804000 117.9018000 117.9018000  73.9211788 208.9804000  73.9211788
 NucSpn=           9           9           0           9           0           0           0           9           0
 AtZEff=   0.0000000   0.0000000   0.0000000   0.0000000   0.0000000   0.0000000   0.0000000   0.0000000   0.0000000
 NQMom=  -51.6000000 -51.6000000   0.0000000 -51.6000000   0.0000000   0.0000000   0.0000000 -51.6000000   0.0000000
 NMagM=    4.1106000   4.1106000   0.0000000   4.1106000   0.0000000   0.0000000   0.0000000   4.1106000   0.0000000
 AtZNuc=  83.0000000  83.0000000  32.0000000  83.0000000  50.0000000  50.0000000  32.0000000  83.0000000  32.0000000
 Leave Link  101 at Tue Mar  6 11:56:38 2018, MaxMem=   536870912 cpu:         0.3
 (Enter /share/apps//mg09/l103.exe)

 GradGradGradGradGradGradGradGradGradGradGradGradGradGradGradGradGradGrad
 Berny optimization.
 Initialization pass.
 No Z-matrix variables, so optimization will use Cartesian coordinates.
 Trust Radius=3.00D-01 FncErr=1.00D-07 GrdErr=1.00D-06
 Number of steps in this run=    100 maximum allowed number of steps=    100.
 GradGradGradGradGradGradGradGradGradGradGradGradGradGradGradGradGradGrad

 Leave Link  103 at Tue Mar  6 11:56:56 2018, MaxMem=   536870912 cpu:         0.1
 (Enter /share/apps//mg09/l202.exe)
 ---------------------------------------------------------------------------------------------------
                            Z-MATRIX (ANGSTROMS AND DEGREES)
   CD    Cent   Atom    N1       Length/X        N2       Alpha/Y        N3        Beta/Z          J
 ---------------------------------------------------------------------------------------------------
      1      1  Bi       0   2.123293          1.149734          0.671441
      2      2  Bi       0  -2.121660          1.156704         -0.660849
      3      3  Ge       0   0.003245          2.904320          0.005228
      4      4  Bi       0  -1.879663         -1.256320          1.161715
      5      5  Sn       0   1.058141         -1.504618          1.813659
      6      6  Sn       0  -1.064291         -1.486373         -1.829927
      7      7  Ge       0  -0.466236          1.137785          2.167013
      8      8  Bi       0   1.879413         -1.250124         -1.166983
      9      9  Ge       0   0.469011          1.150083         -2.160631
 ---------------------------------------------------------------------------------------------------
                         Z-Matrix orientation:                         
 ---------------------------------------------------------------------
 Center     Atomic      Atomic             Coordinates (Angstroms)
 Number     Number       Type             X           Y           Z
 ---------------------------------------------------------------------
      1         83           0        2.123293    1.149734    0.671441
      2         83           0       -2.121660    1.156704   -0.660849
      3         32           0        0.003245    2.904320    0.005228
      4         83           0       -1.879663   -1.256320    1.161715
      5         50           0        1.058141   -1.504618    1.813659
      6         50           0       -1.064291   -1.486373   -1.829927
      7         32           0       -0.466236    1.137785    2.167013
      8         83           0        1.879413   -1.250124   -1.166983
      9         32           0        0.469011    1.150083   -2.160631
 ---------------------------------------------------------------------
                    Distance matrix (angstroms):
                    1          2          3          4          5
     1  Bi   0.000000
     2  Bi   4.449120   0.000000
     3  Ge   2.831433   2.830732   0.000000
     4  Bi   4.696075   3.033643   4.711022   0.000000
     5  Sn   3.079739   4.828764   4.880775   3.019499   0.000000
     6  Sn   4.833900   3.077439   4.877050   3.109289   4.216725
     7  Ge   2.990408   3.276826   2.830967   2.956373   3.070973
     8  Bi   3.032919   4.696550   4.706749   4.421937   3.102174
     9  Ge   3.279829   2.993487   2.825815   4.727053   4.815547
                    6          7          8          9
     6  Sn   0.000000
     7  Ge   4.818652   0.000000
     8  Bi   3.026665   4.724374   0.000000
     9  Ge   3.067781   4.427566   2.955937   0.000000
 Stoichiometry    Bi4Ge3Sn2
 Framework group  C1[X(Bi4Ge3Sn2)]
 Deg. of freedom    21
 Full point group                 C1      NOp   1
 Largest Abelian subgroup         C1      NOp   1
 Largest concise Abelian subgroup C1      NOp   1
                         Standard orientation:                         
 ---------------------------------------------------------------------
 Center     Atomic      Atomic             Coordinates (Angstroms)
 Number     Number       Type             X           Y           Z
 ---------------------------------------------------------------------
      1         83           0       -2.123293    1.149734   -0.671441
      2         83           0        2.121660    1.156704    0.660849
      3         32           0       -0.003245    2.904320   -0.005228
      4         83           0        1.879663   -1.256320   -1.161715
      5         50           0       -1.058141   -1.504618   -1.813659
      6         50           0        1.064291   -1.486373    1.829927
      7         32           0        0.466236    1.137785   -2.167013
      8         83           0       -1.879413   -1.250124    1.166983
      9         32           0       -0.469011    1.150083    2.160631
 ---------------------------------------------------------------------
 Rotational constants (GHZ):      0.1056535      0.0858868      0.0813278
 Leave Link  202 at Tue Mar  6 11:56:58 2018, MaxMem=   536870912 cpu:         0.0
 (Enter /share/apps//mg09/l301.exe)
 Standard basis: def2TZVP (5D, 7F)
 Ernie: Thresh=  0.10000D-02 Tol=  0.10000D-05 Strict=F.
 There are   519 symmetry adapted cartesian basis functions of A   symmetry.
 There are   444 symmetry adapted basis functions of A   symmetry.
   444 basis functions,   963 primitive gaussians,   519 cartesian basis functions
   116 alpha electrons      116 beta electrons
       nuclear repulsion energy      3547.6734501315 Hartrees.
 IExCor= 1009 DFT=T Ex+Corr=PBE1PBE ExCW=0 ScaHFX=  0.250000
 ScaDFX=  0.750000  0.750000  1.000000  1.000000 ScalE2=  1.000000  1.000000
 IRadAn=      0 IRanWt=     -1 IRanGd=            0 ICorTp=0 IEmpDi=  4
 NAtoms=    9 NActive=    9 NUniq=    9 SFac= 1.00D+00 NAtFMM=   60 NAOKFM=F Big=F
 Integral buffers will be    131072 words long.
 Raffenetti 2 integral format.
 Two-electron integral symmetry is turned on.
 Leave Link  301 at Tue Mar  6 11:57:14 2018, MaxMem=   536870912 cpu:         0.3
 (Enter /share/apps//mg09/l302.exe)
 NPDir=0 NMtPBC=     1 NCelOv=     1 NCel=       1 NClECP=     1 NCelD=      1
         NCelK=      1 NCelE2=     1 NClLst=     1 CellRange=     0.0.
 One-electron integrals computed using PRISM.
   1 Symmetry operations used in ECPInt.
 ECPInt:  NShTT=   10440 NPrTT=   41973 LenC2=    9670 LenP2D=   27422.
 LDataN:  DoStor=T MaxTD1= 8 Len=  415
 NBasis=   444 RedAO= T EigKep=  1.53D-03  NBF=   444
 NBsUse=   444 1.00D-06 EigRej= -1.00D+00 NBFU=   444
 Precomputing XC quadrature grid using
 IXCGrd= 4 IRadAn=           0 IRanWt=          -1 IRanGd=           0 AccXCQ= 0.00D+00.
 Defaulting to unpruned grid for atomic number  83.
 Defaulting to unpruned grid for atomic number  83.
 Defaulting to unpruned grid for atomic number  83.
 Generated NRdTot=       0 NPtTot=           0 NUsed=           0 NTot=          32
 NSgBfM=   505   505   505   505   505 MxSgAt=     9 MxSgA2=     9.
 Leave Link  302 at Tue Mar  6 11:57:30 2018, MaxMem=   536870912 cpu:        25.5
 (Enter /share/apps//mg09/l303.exe)
 DipDrv:  MaxL=1.
 Leave Link  303 at Tue Mar  6 11:57:39 2018, MaxMem=   536870912 cpu:         0.3
 (Enter /share/apps//mg09/l401.exe)
 ExpMin= 4.62D-02 ExpMax= 4.66D+05 ExpMxC= 4.50D+03 IAcc=2 IRadAn=         4 AccDes= 0.00D+00
 Harris functional with IExCor= 1009 and IRadAn=       4 diagonalized for initial guess.
 HarFok:  IExCor= 1009 AccDes= 0.00D+00 IRadAn=         4 IDoV= 1 UseB2=F ITyADJ=14
 ICtDFT=  3500011 ScaDFX=  1.000000  1.000000  1.000000  1.000000
 Defaulting to unpruned grid for atomic number  83.
 Defaulting to unpruned grid for atomic number  83.
 Defaulting to unpruned grid for atomic number  83.
 Defaulting to unpruned grid for atomic number  83.
 FoFCou: FMM=F IPFlag=           0 FMFlag=      100000 FMFlg1=           0
         NFxFlg=           0 DoJE=T BraDBF=F KetDBF=T FulRan=T
         wScrn=  0.000000 ICntrl=     500 IOpCl=  0 I1Cent=   200000004 NGrid=           0
         NMat0=    1 NMatS0=      1 NMatT0=    0 NMatD0=    1 NMtDS0=    0 NMtDT0=    0
 Petite list used in FoFCou.
 DSYEVD-2 returned Info=      149018 IAlg= 4 N=   444 NDim=   444 NE2=     1207947 trying  DSYEV.
 Harris En= -7518.59799800723    
 JPrj=0 DoOrth=F DoCkMO=F.
 Leave Link  401 at Tue Mar  6 11:57:48 2018, MaxMem=   536870912 cpu:        10.3
 (Enter /share/apps//mg09/l502.exe)
 Closed shell SCF:
 Using DIIS extrapolation, IDIIS=  1040.
 Integral symmetry usage will be decided dynamically.
 IVT=     1410107 IEndB=     1410107 NGot=   536870912 MDV=   536322046
 LenX=   536322046 LenY=   536052166
 Requested convergence on RMS density matrix=1.00D-08 within 768 cycles.
 Requested convergence on MAX density matrix=1.00D-06.
 Requested convergence on             energy=1.00D-06.
 No special actions if energy rises.
 Fock matrices will be formed incrementally for  20 cycles.

 Cycle   1  Pass 1  IDiag  1:
 FoFJK:  IHMeth= 1 ICntrl=       0 DoSepK=F KAlg= 0 I1Cent=   0 FoldK=F
 IRaf= 880000000 NMat=   1 IRICut=       1 DoRegI=T DoRafI=F ISym2E= 0.
 FoFCou: FMM=F IPFlag=           0 FMFlag=      100000 FMFlg1=           0
         NFxFlg=           0 DoJE=F BraDBF=F KetDBF=F FulRan=T
         wScrn=  0.000000 ICntrl=       0 IOpCl=  0 I1Cent=           0 NGrid=           0
         NMat0=    1 NMatS0=      1 NMatT0=    0 NMatD0=    1 NMtDS0=    0 NMtDT0=    0
 Symmetry not used in FoFCou.
 Defaulting to unpruned grid for atomic number  83.
 Defaulting to unpruned grid for atomic number  83.
 Defaulting to unpruned grid for atomic number  83.
 Defaulting to unpruned grid for atomic number  83.
 E= -7517.29654441957    
 DIIS: error= 3.92D-02 at cycle   1 NSaved=   1.
 NSaved= 1 IEnMin= 1 EnMin= -7517.29654441957     IErMin= 1 ErrMin= 3.92D-02
 ErrMax= 3.92D-02  0.00D+00 EMaxC= 1.00D-01 BMatC= 1.43D+00 BMatP= 1.43D+00
 IDIUse=3 WtCom= 6.08D-01 WtEn= 3.92D-01
 Coeff-Com:  0.100D+01
 Coeff-En:   0.100D+01
 Coeff:      0.100D+01
 Gap=     0.108 Goal=   None    Shift=    0.000
 GapD=    0.108 DampG=1.000 DampE=0.500 DampFc=0.5000 IDamp=-1.
 Damping current iteration by 5.00D-01
 RMSDP=4.34D-03 MaxDP=1.77D-01              OVMax= 3.21D-01

 Cycle   2  Pass 1  IDiag  1:
 RMSU=  2.16D-03    CP:  1.00D+00
 E= -7517.45535443991     Delta-E=       -0.158810020337 Rises=F Damp=T
 DIIS: error= 1.15D-02 at cycle   2 NSaved=   2.
 NSaved= 2 IEnMin= 2 EnMin= -7517.45535443991     IErMin= 2 ErrMin= 1.15D-02
 ErrMax= 1.15D-02  0.00D+00 EMaxC= 1.00D-01 BMatC= 1.38D-01 BMatP= 1.43D+00
 IDIUse=3 WtCom= 8.85D-01 WtEn= 1.15D-01
 Coeff-Com:  0.207D-01 0.979D+00
 Coeff-En:   0.308D+00 0.692D+00
 Coeff:      0.537D-01 0.946D+00
 Gap=     0.168 Goal=   None    Shift=    0.000
 RMSDP=1.87D-03 MaxDP=7.49D-02 DE=-1.59D-01 OVMax= 3.94D-01

 Cycle   3  Pass 1  IDiag  1:
 RMSU=  1.60D-03    CP:  1.01D+00  5.54D-01
 E= -7517.44472408013     Delta-E=        0.010630359782 Rises=F Damp=F
 DIIS: error= 1.75D-02 at cycle   3 NSaved=   3.
 NSaved= 3 IEnMin= 2 EnMin= -7517.45535443991     IErMin= 2 ErrMin= 1.15D-02
 ErrMax= 1.75D-02  0.00D+00 EMaxC= 1.00D-01 BMatC= 3.55D-01 BMatP= 1.38D-01
 IDIUse=2 WtCom= 0.00D+00 WtEn= 1.00D+00
 Coeff-En:   0.000D+00 0.510D+00 0.490D+00
 Coeff:      0.000D+00 0.510D+00 0.490D+00
 Gap=     0.161 Goal=   None    Shift=    0.000
 RMSDP=2.57D-03 MaxDP=9.32D-02 DE= 1.06D-02 OVMax= 3.35D-01

 Cycle   4  Pass 1  IDiag  1:
 RMSU=  1.18D-03    CP:  1.00D+00  1.08D+00 -2.40D-01
 E= -7517.40136153387     Delta-E=        0.043362546254 Rises=F Damp=F
 DIIS: error= 1.95D-02 at cycle   4 NSaved=   4.
 NSaved= 4 IEnMin= 2 EnMin= -7517.45535443991     IErMin= 2 ErrMin= 1.15D-02
 ErrMax= 1.95D-02  0.00D+00 EMaxC= 1.00D-01 BMatC= 3.21D-01 BMatP= 1.38D-01
 IDIUse=2 WtCom= 0.00D+00 WtEn= 1.00D+00
 Coeff-En:   0.000D+00 0.000D+00 0.519D+00 0.481D+00
 Coeff:      0.000D+00 0.000D+00 0.519D+00 0.481D+00
 Gap=     0.134 Goal=   None    Shift=    0.000
 RMSDP=1.77D-03 MaxDP=6.94D-02 DE= 4.34D-02 OVMax= 2.49D-01

 Cycle   5  Pass 1  IDiag  1:
 RMSU=  7.67D-04    CP:  9.99D-01  9.52D-01  3.07D-01 -1.02D-01
 E= -7517.72016607288     Delta-E=       -0.318804539009 Rises=F Damp=F
 DIIS: error= 8.87D-03 at cycle   5 NSaved=   5.
 NSaved= 5 IEnMin= 5 EnMin= -7517.72016607288     IErMin= 5 ErrMin= 8.87D-03
 ErrMax= 8.87D-03  0.00D+00 EMaxC= 1.00D-01 BMatC= 9.33D-02 BMatP= 1.38D-01
 IDIUse=3 WtCom= 9.11D-01 WtEn= 8.87D-02
 EnCoef did     7 forward-backward iterations
 Coeff-Com:  0.695D-02 0.270D-01 0.328D+00 0.330D+00 0.308D+00
 Coeff-En:   0.000D+00 0.000D+00 0.191D+00 0.245D+00 0.564D+00
 Coeff:      0.633D-02 0.246D-01 0.316D+00 0.322D+00 0.331D+00
 Gap=     0.120 Goal=   None    Shift=    0.000
 RMSDP=8.20D-04 MaxDP=5.34D-02 DE=-3.19D-01 OVMax= 8.92D-02

 Cycle   6  Pass 1  IDiag  1:
 RMSU=  2.29D-04    CP:  1.00D+00  8.23D-01  2.98D-01  3.49D-01  3.56D-01
 E= -7517.80950057039     Delta-E=       -0.089334497512 Rises=F Damp=F
 DIIS: error= 1.42D-03 at cycle   6 NSaved=   6.
 NSaved= 6 IEnMin= 6 EnMin= -7517.80950057039     IErMin= 6 ErrMin= 1.42D-03
 ErrMax= 1.42D-03  0.00D+00 EMaxC= 1.00D-01 BMatC= 2.40D-03 BMatP= 9.33D-02
 IDIUse=3 WtCom= 9.86D-01 WtEn= 1.42D-02
 Coeff-Com:  0.323D-02-0.136D-01 0.265D-01 0.281D-01 0.153D+00 0.803D+00
 Coeff-En:   0.000D+00 0.000D+00 0.000D+00 0.000D+00 0.000D+00 0.100D+01
 Coeff:      0.318D-02-0.134D-01 0.261D-01 0.277D-01 0.151D+00 0.806D+00
 Gap=     0.119 Goal=   None    Shift=    0.000
 RMSDP=1.53D-04 MaxDP=7.32D-03 DE=-8.93D-02 OVMax= 1.53D-02

 Cycle   7  Pass 1  IDiag  1:
 RMSU=  1.03D-04    CP:  1.00D+00  8.39D-01  3.22D-01  3.14D-01  4.57D-01
                    CP:  7.97D-01
 E= -7517.81150521582     Delta-E=       -0.002004645423 Rises=F Damp=F
 DIIS: error= 5.97D-04 at cycle   7 NSaved=   7.
 NSaved= 7 IEnMin= 7 EnMin= -7517.81150521582     IErMin= 7 ErrMin= 5.97D-04
 ErrMax= 5.97D-04  0.00D+00 EMaxC= 1.00D-01 BMatC= 4.53D-04 BMatP= 2.40D-03
 IDIUse=3 WtCom= 9.94D-01 WtEn= 5.97D-03
 Coeff-Com:  0.128D-02-0.736D-02 0.220D-02 0.187D-02 0.765D-01 0.512D+00
 Coeff-Com:  0.414D+00
 Coeff-En:   0.000D+00 0.000D+00 0.000D+00 0.000D+00 0.000D+00 0.142D+00
 Coeff-En:   0.858D+00
 Coeff:      0.127D-02-0.731D-02 0.219D-02 0.186D-02 0.760D-01 0.510D+00
 Coeff:      0.416D+00
 Gap=     0.119 Goal=   None    Shift=    0.000
 RMSDP=6.21D-05 MaxDP=3.05D-03 DE=-2.00D-03 OVMax= 6.25D-03

 Cycle   8  Pass 1  IDiag  1:
 RMSU=  2.19D-05    CP:  1.00D+00  8.43D-01  3.13D-01  3.04D-01  4.51D-01
                    CP:  8.85D-01  5.10D-01
 E= -7517.81197236750     Delta-E=       -0.000467151685 Rises=F Damp=F
 DIIS: error= 8.45D-05 at cycle   8 NSaved=   8.
 NSaved= 8 IEnMin= 8 EnMin= -7517.81197236750     IErMin= 8 ErrMin= 8.45D-05
 ErrMax= 8.45D-05  0.00D+00 EMaxC= 1.00D-01 BMatC= 2.00D-05 BMatP= 4.53D-04
 IDIUse=1 WtCom= 1.00D+00 WtEn= 0.00D+00
 Coeff-Com:  0.478D-04-0.433D-03-0.244D-02-0.476D-02 0.200D-01 0.181D+00
 Coeff-Com:  0.196D+00 0.612D+00
 Coeff:      0.478D-04-0.433D-03-0.244D-02-0.476D-02 0.200D-01 0.181D+00
 Coeff:      0.196D+00 0.612D+00
 Gap=     0.119 Goal=   None    Shift=    0.000
 RMSDP=1.17D-05 MaxDP=8.29D-04 DE=-4.67D-04 OVMax= 8.40D-04

 Cycle   9  Pass 1  IDiag  1:
 RMSU=  7.48D-06    CP:  1.00D+00  8.41D-01  3.12D-01  3.05D-01  4.53D-01
                    CP:  8.92D-01  5.59D-01  8.24D-01
 E= -7517.81198402415     Delta-E=       -0.000011656644 Rises=F Damp=F
 DIIS: error= 4.05D-05 at cycle   9 NSaved=   9.
 NSaved= 9 IEnMin= 9 EnMin= -7517.81198402415     IErMin= 9 ErrMin= 4.05D-05
 ErrMax= 4.05D-05  0.00D+00 EMaxC= 1.00D-01 BMatC= 1.69D-06 BMatP= 2.00D-05
 IDIUse=1 WtCom= 1.00D+00 WtEn= 0.00D+00
 Coeff-Com:  0.593D-05-0.108D-03-0.768D-03-0.236D-02 0.490D-02 0.532D-01
 Coeff-Com:  0.595D-01 0.285D+00 0.600D+00
 Coeff:      0.593D-05-0.108D-03-0.768D-03-0.236D-02 0.490D-02 0.532D-01
 Coeff:      0.595D-01 0.285D+00 0.600D+00
 Gap=     0.119 Goal=   None    Shift=    0.000
 RMSDP=4.51D-06 MaxDP=1.94D-04 DE=-1.17D-05 OVMax= 5.59D-04

 Cycle  10  Pass 1  IDiag  1:
 RMSU=  3.95D-06    CP:  1.00D+00  8.41D-01  3.12D-01  3.04D-01  4.54D-01
                    CP:  8.94D-01  5.59D-01  8.76D-01  7.88D-01
 E= -7517.81198442837     Delta-E=       -0.000000404229 Rises=F Damp=F
 DIIS: error= 3.56D-05 at cycle  10 NSaved=  10.
 NSaved=10 IEnMin=10 EnMin= -7517.81198442837     IErMin=10 ErrMin= 3.56D-05
 ErrMax= 3.56D-05  0.00D+00 EMaxC= 1.00D-01 BMatC= 8.83D-07 BMatP= 1.69D-06
 IDIUse=1 WtCom= 1.00D+00 WtEn= 0.00D+00
 Coeff-Com:  0.152D-04-0.656D-04-0.179D-03-0.124D-02 0.892D-03 0.155D-01
 Coeff-Com:  0.172D-01 0.133D+00 0.467D+00 0.368D+00
 Coeff:      0.152D-04-0.656D-04-0.179D-03-0.124D-02 0.892D-03 0.155D-01
 Coeff:      0.172D-01 0.133D+00 0.467D+00 0.368D+00
 Gap=     0.119 Goal=   None    Shift=    0.000
 RMSDP=3.27D-06 MaxDP=1.11D-04 DE=-4.04D-07 OVMax= 4.50D-04

 Cycle  11  Pass 1  IDiag  1:
 RMSU=  1.74D-06    CP:  1.00D+00  8.41D-01  3.12D-01  3.04D-01  4.54D-01
                    CP:  8.95D-01  5.61D-01  8.86D-01  9.31D-01  3.67D-01
 E= -7517.81198539675     Delta-E=       -0.000000968372 Rises=F Damp=F
 DIIS: error= 1.43D-05 at cycle  11 NSaved=  11.
 NSaved=11 IEnMin=11 EnMin= -7517.81198539675     IErMin=11 ErrMin= 1.43D-05
 ErrMax= 1.43D-05  0.00D+00 EMaxC= 1.00D-01 BMatC= 1.74D-07 BMatP= 8.83D-07
 IDIUse=1 WtCom= 1.00D+00 WtEn= 0.00D+00
 Coeff-Com:  0.245D-04-0.549D-04 0.116D-03-0.373D-03-0.785D-03-0.296D-02
 Coeff-Com: -0.383D-02 0.233D-01 0.210D+00 0.308D+00 0.466D+00
 Coeff:      0.245D-04-0.549D-04 0.116D-03-0.373D-03-0.785D-03-0.296D-02
 Coeff:     -0.383D-02 0.233D-01 0.210D+00 0.308D+00 0.466D+00
 Gap=     0.119 Goal=   None    Shift=    0.000
 RMSDP=1.27D-06 MaxDP=5.64D-05 DE=-9.68D-07 OVMax= 1.82D-04

 Cycle  12  Pass 1  IDiag  1:
 RMSU=  6.00D-07    CP:  1.00D+00  8.40D-01  3.13D-01  3.04D-01  4.54D-01
                    CP:  8.96D-01  5.62D-01  8.98D-01  9.41D-01  5.58D-01
                    CP:  6.19D-01
 E= -7517.81198561133     Delta-E=       -0.000000214581 Rises=F Damp=F
 DIIS: error= 3.30D-06 at cycle  12 NSaved=  12.
 NSaved=12 IEnMin=12 EnMin= -7517.81198561133     IErMin=12 ErrMin= 3.30D-06
 ErrMax= 3.30D-06  0.00D+00 EMaxC= 1.00D-01 BMatC= 1.40D-08 BMatP= 1.74D-07
 IDIUse=1 WtCom= 1.00D+00 WtEn= 0.00D+00
 Coeff-Com:  0.184D-04-0.449D-04 0.102D-03-0.604D-04-0.743D-03-0.459D-02
 Coeff-Com: -0.509D-02-0.406D-02 0.722D-01 0.150D+00 0.298D+00 0.495D+00
 Coeff:      0.184D-04-0.449D-04 0.102D-03-0.604D-04-0.743D-03-0.459D-02
 Coeff:     -0.509D-02-0.406D-02 0.722D-01 0.150D+00 0.298D+00 0.495D+00
 Gap=     0.119 Goal=   None    Shift=    0.000
 RMSDP=3.82D-07 MaxDP=1.39D-05 DE=-2.15D-07 OVMax= 4.62D-05

 Cycle  13  Pass 1  IDiag  1:
 RMSU=  2.74D-07    CP:  1.00D+00  8.40D-01  3.13D-01  3.04D-01  4.54D-01
                    CP:  8.96D-01  5.62D-01  9.00D-01  9.48D-01  5.70D-01
                    CP:  7.01D-01  6.73D-01
 E= -7517.81198562141     Delta-E=       -0.000000010081 Rises=F Damp=F
 DIIS: error= 1.87D-06 at cycle  13 NSaved=  13.
 NSaved=13 IEnMin=13 EnMin= -7517.81198562141     IErMin=13 ErrMin= 1.87D-06
 ErrMax= 1.87D-06  0.00D+00 EMaxC= 1.00D-01 BMatC= 3.51D-09 BMatP= 1.40D-08
 IDIUse=1 WtCom= 1.00D+00 WtEn= 0.00D+00
 Coeff-Com:  0.109D-04-0.257D-04 0.475D-04 0.903D-05-0.435D-03-0.283D-02
 Coeff-Com: -0.306D-02-0.695D-02 0.206D-01 0.646D-01 0.150D+00 0.355D+00
 Coeff-Com:  0.422D+00
 Coeff:      0.109D-04-0.257D-04 0.475D-04 0.903D-05-0.435D-03-0.283D-02
 Coeff:     -0.306D-02-0.695D-02 0.206D-01 0.646D-01 0.150D+00 0.355D+00
 Coeff:      0.422D+00
 Gap=     0.119 Goal=   None    Shift=    0.000
 RMSDP=2.38D-07 MaxDP=1.13D-05 DE=-1.01D-08 OVMax= 2.76D-05

 Cycle  14  Pass 1  IDiag  1:
 RMSU=  1.44D-07    CP:  1.00D+00  8.40D-01  3.13D-01  3.04D-01  4.54D-01
                    CP:  8.96D-01  5.63D-01  9.01D-01  9.54D-01  5.68D-01
                    CP:  7.14D-01  8.03D-01  4.42D-01
 E= -7517.81198562474     Delta-E=       -0.000000003331 Rises=F Damp=F
 DIIS: error= 1.14D-06 at cycle  14 NSaved=  14.
 NSaved=14 IEnMin=14 EnMin= -7517.81198562474     IErMin=14 ErrMin= 1.14D-06
 ErrMax= 1.14D-06  0.00D+00 EMaxC= 1.00D-01 BMatC= 1.15D-09 BMatP= 3.51D-09
 IDIUse=1 WtCom= 1.00D+00 WtEn= 0.00D+00
 Coeff-Com:  0.392D-05-0.744D-05 0.203D-05 0.223D-04-0.128D-03-0.845D-03
 Coeff-Com: -0.928D-03-0.455D-02-0.495D-02 0.877D-02 0.350D-01 0.135D+00
 Coeff-Com:  0.365D+00 0.467D+00
 Coeff:      0.392D-05-0.744D-05 0.203D-05 0.223D-04-0.128D-03-0.845D-03
 Coeff:     -0.928D-03-0.455D-02-0.495D-02 0.877D-02 0.350D-01 0.135D+00
 Coeff:      0.365D+00 0.467D+00
 Gap=     0.119 Goal=   None    Shift=    0.000
 RMSDP=1.14D-07 MaxDP=6.65D-06 DE=-3.33D-09 OVMax= 1.33D-05

 Cycle  15  Pass 1  IDiag  1:
 RMSU=  5.12D-08    CP:  1.00D+00  8.40D-01  3.13D-01  3.04D-01  4.54D-01
                    CP:  8.96D-01  5.63D-01  9.02D-01  9.56D-01  5.74D-01
                    CP:  7.17D-01  8.07D-01  6.78D-01  6.00D-01
 E= -7517.81198562632     Delta-E=       -0.000000001584 Rises=F Damp=F
 DIIS: error= 2.19D-07 at cycle  15 NSaved=  15.
 NSaved=15 IEnMin=15 EnMin= -7517.81198562632     IErMin=15 ErrMin= 2.19D-07
 ErrMax= 2.19D-07  0.00D+00 EMaxC= 1.00D-01 BMatC= 5.16D-11 BMatP= 1.15D-09
 IDIUse=1 WtCom= 1.00D+00 WtEn= 0.00D+00
 Coeff-Com:  0.173D-06-0.946D-07-0.531D-05 0.815D-05 0.967D-05 0.433D-04
 Coeff-Com: -0.598D-06-0.654D-03-0.455D-02-0.552D-02-0.841D-02-0.507D-02
 Coeff-Com:  0.971D-01 0.231D+00 0.697D+00
 Coeff:      0.173D-06-0.946D-07-0.531D-05 0.815D-05 0.967D-05 0.433D-04
 Coeff:     -0.598D-06-0.654D-03-0.455D-02-0.552D-02-0.841D-02-0.507D-02
 Coeff:      0.971D-01 0.231D+00 0.697D+00
 Gap=     0.119 Goal=   None    Shift=    0.000
 RMSDP=3.16D-08 MaxDP=1.82D-06 DE=-1.58D-09 OVMax= 5.02D-06

 Cycle  16  Pass 1  IDiag  1:
 RMSU=  1.27D-08    CP:  1.00D+00  8.40D-01  3.13D-01  3.04D-01  4.54D-01
                    CP:  8.96D-01  5.63D-01  9.02D-01  9.56D-01  5.75D-01
                    CP:  7.23D-01  8.13D-01  6.92D-01  7.12D-01  8.82D-01
 E= -7517.81198562645     Delta-E=       -0.000000000127 Rises=F Damp=F
 DIIS: error= 4.76D-08 at cycle  16 NSaved=  16.
 NSaved=16 IEnMin=16 EnMin= -7517.81198562645     IErMin=16 ErrMin= 4.76D-08
 ErrMax= 4.76D-08  0.00D+00 EMaxC= 1.00D-01 BMatC= 2.83D-12 BMatP= 5.16D-11
 IDIUse=1 WtCom= 1.00D+00 WtEn= 0.00D+00
 Coeff-Com: -0.306D-06 0.747D-06-0.146D-05 0.126D-05 0.106D-04 0.761D-04
 Coeff-Com:  0.624D-04 0.747D-04-0.108D-02-0.237D-02-0.504D-02-0.979D-02
 Coeff-Com:  0.654D-02 0.435D-01 0.253D+00 0.715D+00
 Coeff:     -0.306D-06 0.747D-06-0.146D-05 0.126D-05 0.106D-04 0.761D-04
 Coeff:      0.624D-04 0.747D-04-0.108D-02-0.237D-02-0.504D-02-0.979D-02
 Coeff:      0.654D-02 0.435D-01 0.253D+00 0.715D+00
 Gap=     0.119 Goal=   None    Shift=    0.000
 RMSDP=8.23D-09 MaxDP=3.22D-07 DE=-1.27D-10 OVMax= 1.42D-06

 SCF Done:  E(RPBE1PBE) =  -7517.81198563     A.U. after   16 cycles
            NFock= 16  Conv=0.82D-08     -V/T= 2.1285
 KE= 6.661942678522D+03 PE=-2.468645336559D+04 EE= 6.959025251306D+03
 Leave Link  502 at Tue Mar  6 12:09:51 2018, MaxMem=   536870912 cpu:      2840.9
 (Enter /share/apps//mg09/l601.exe)
 Copying SCF densities to generalized density rwf, IOpCl= 0 IROHF=0.

 **********************************************************************

            Population analysis using the SCF density.

 **********************************************************************

 Orbital symmetries:
       Occupied  (A) (A) (A) (A) (A) (A) (A) (A) (A) (A) (A) (A)
                 (A) (A) (A) (A) (A) (A) (A) (A) (A) (A) (A) (A)
                 (A) (A) (A) (A) (A) (A) (A) (A) (A) (A) (A) (A)
                 (A) (A) (A) (A) (A) (A) (A) (A) (A) (A) (A) (A)
                 (A) (A) (A) (A) (A) (A) (A) (A) (A) (A) (A) (A)
                 (A) (A) (A) (A) (A) (A) (A) (A) (A) (A) (A) (A)
                 (A) (A) (A) (A) (A) (A) (A) (A) (A) (A) (A) (A)
                 (A) (A) (A) (A) (A) (A) (A) (A) (A) (A) (A) (A)
                 (A) (A) (A) (A) (A) (A) (A) (A) (A) (A) (A) (A)
                 (A) (A) (A) (A) (A) (A) (A) (A)
       Virtual   (A) (A) (A) (A) (A) (A) (A) (A) (A) (A) (A) (A)
                 (A) (A) (A) (A) (A) (A) (A) (A) (A) (A) (A) (A)
                 (A) (A) (A) (A) (A) (A) (A) (A) (A) (A) (A) (A)
                 (A) (A) (A) (A) (A) (A) (A) (A) (A) (A) (A) (A)
                 (A) (A) (A) (A) (A) (A) (A) (A) (A) (A) (A) (A)
                 (A) (A) (A) (A) (A) (A) (A) (A) (A) (A) (A) (A)
                 (A) (A) (A) (A) (A) (A) (A) (A) (A) (A) (A) (A)
                 (A) (A) (A) (A) (A) (A) (A) (A) (A) (A) (A) (A)
                 (A) (A) (A) (A) (A) (A) (A) (A) (A) (A) (A) (A)
                 (A) (A) (A) (A) (A) (A) (A) (A) (A) (A) (A) (A)
                 (A) (A) (A) (A) (A) (A) (A) (A) (A) (A) (A) (A)
                 (A) (A) (A) (A) (A) (A) (A) (A) (A) (A) (A) (A)
                 (A) (A) (A) (A) (A) (A) (A) (A) (A) (A) (A) (A)
                 (A) (A) (A) (A) (A) (A) (A) (A) (A) (A) (A) (A)
                 (A) (A) (A) (A) (A) (A) (A) (A) (A) (A) (A) (A)
                 (A) (A) (A) (A) (A) (A) (A) (A) (A) (A) (A) (A)
                 (A) (A) (A) (A) (A) (A) (A) (A) (A) (A) (A) (A)
                 (A) (A) (A) (A) (A) (A) (A) (A) (A) (A) (A) (A)
                 (A) (A) (A) (A) (A) (A) (A) (A) (A) (A) (A) (A)
                 (A) (A) (A) (A) (A) (A) (A) (A) (A) (A) (A) (A)
                 (A) (A) (A) (A) (A) (A) (A) (A) (A) (A) (A) (A)
                 (A) (A) (A) (A) (A) (A) (A) (A) (A) (A) (A) (A)
                 (A) (A) (A) (A) (A) (A) (A) (A) (A) (A) (A) (A)
                 (A) (A) (A) (A) (A) (A) (A) (A) (A) (A) (A) (A)
                 (A) (A) (A) (A) (A) (A) (A) (A) (A) (A) (A) (A)
                 (A) (A) (A) (A) (A) (A) (A) (A) (A) (A) (A) (A)
                 (A) (A) (A) (A) (A) (A) (A) (A) (A) (A) (A) (A)
                 (A) (A) (A) (A)
 The electronic state is 1-A.
 Alpha  occ. eigenvalues -- -399.10287-399.10278-399.09430 -49.91817 -49.91809
 Alpha  occ. eigenvalues --  -49.91041 -44.39906 -44.39898 -44.39872 -44.39863
 Alpha  occ. eigenvalues --  -44.39850 -44.39841 -44.39111 -44.39089 -44.39074
 Alpha  occ. eigenvalues --   -6.28305  -6.28297  -6.27557  -6.02271  -6.02270
 Alpha  occ. eigenvalues --   -6.00891  -6.00882  -5.13540  -5.13522  -4.43753
 Alpha  occ. eigenvalues --   -4.43747  -4.43636  -4.43628  -4.43568  -4.43558
 Alpha  occ. eigenvalues --   -4.42992  -4.42892  -4.42852  -3.74545  -3.74544
 Alpha  occ. eigenvalues --   -3.74409  -3.74409  -3.74285  -3.74284  -3.73211
 Alpha  occ. eigenvalues --   -3.73200  -3.73038  -3.73029  -3.72821  -3.72811
 Alpha  occ. eigenvalues --   -3.46733  -3.46716  -3.46667  -3.46652  -3.46563
 Alpha  occ. eigenvalues --   -3.46542  -1.23176  -1.23170  -1.23168  -1.23161
 Alpha  occ. eigenvalues --   -1.23105  -1.23096  -1.23030  -1.23013  -1.23002
 Alpha  occ. eigenvalues --   -1.22990  -1.22429  -1.22423  -1.22393  -1.22277
 Alpha  occ. eigenvalues --   -1.22274  -1.08419  -1.08411  -1.08202  -1.08201
 Alpha  occ. eigenvalues --   -1.08101  -1.08093  -1.07959  -1.07953  -1.07877
 Alpha  occ. eigenvalues --   -1.07861  -1.06828  -1.06818  -1.06757  -1.06746
 Alpha  occ. eigenvalues --   -1.06674  -1.06642  -1.06470  -1.06449  -1.06426
 Alpha  occ. eigenvalues --   -1.06391  -1.02925  -1.02910  -1.02905  -1.02886
 Alpha  occ. eigenvalues --   -1.02856  -1.02776  -1.02737  -1.02723  -1.02705
 Alpha  occ. eigenvalues --   -1.02688  -0.66469  -0.62776  -0.58490  -0.57944
 Alpha  occ. eigenvalues --   -0.48585  -0.48174  -0.44123  -0.42657  -0.40875
 Alpha  occ. eigenvalues --   -0.29056  -0.26904  -0.26716  -0.26303  -0.25092
 Alpha  occ. eigenvalues --   -0.24151  -0.23591  -0.22656  -0.21744  -0.21420
 Alpha  occ. eigenvalues --   -0.19608
 Alpha virt. eigenvalues --   -0.07719  -0.07187  -0.06545  -0.06399  -0.06311
 Alpha virt. eigenvalues --   -0.05504  -0.05158  -0.04703  -0.04138  -0.04080
 Alpha virt. eigenvalues --   -0.04047  -0.02014  -0.01698   0.03669   0.04623
 Alpha virt. eigenvalues --    0.04974   0.06361   0.08044   0.08798   0.08830
 Alpha virt. eigenvalues --    0.09198   0.09417   0.10265   0.10363   0.10536
 Alpha virt. eigenvalues --    0.10753   0.11230   0.11878   0.12808   0.13035
 Alpha virt. eigenvalues --    0.13918   0.16152   0.16789   0.17244   0.17294
 Alpha virt. eigenvalues --    0.17837   0.18588   0.19180   0.19519   0.20052
 Alpha virt. eigenvalues --    0.20479   0.20833   0.22912   0.23271   0.24050
 Alpha virt. eigenvalues --    0.24706   0.24915   0.26078   0.27095   0.28838
 Alpha virt. eigenvalues --    0.29158   0.29890   0.30514   0.30837   0.31337
 Alpha virt. eigenvalues --    0.31458   0.32361   0.32738   0.33622   0.34019
 Alpha virt. eigenvalues --    0.34339   0.35262   0.35677   0.36832   0.37193
 Alpha virt. eigenvalues --    0.38543   0.39736   0.40654   0.41119   0.41380
 Alpha virt. eigenvalues --    0.42325   0.43107   0.43560   0.44460   0.44596
 Alpha virt. eigenvalues --    0.45542   0.46334   0.46408   0.47369   0.48262
 Alpha virt. eigenvalues --    0.48519   0.49745   0.49845   0.50598   0.50781
 Alpha virt. eigenvalues --    0.51496   0.54341   0.54806   0.55026   0.56300
 Alpha virt. eigenvalues --    0.56961   0.57889   0.58637   0.59326   0.59473
 Alpha virt. eigenvalues --    0.60306   0.60923   0.61432   0.61649   0.61987
 Alpha virt. eigenvalues --    0.62683   0.62827   0.64334   0.64961   0.65640
 Alpha virt. eigenvalues --    0.66948   0.66957   0.67403   0.69014   0.69475
 Alpha virt. eigenvalues --    0.69844   0.72882   0.73137   0.73737   0.73760
 Alpha virt. eigenvalues --    0.74923   0.75987   0.76784   0.76876   0.77116
 Alpha virt. eigenvalues --    0.80166   0.80211   0.80963   0.82162   0.82498
 Alpha virt. eigenvalues --    0.83498   0.83558   0.83967   0.85801   0.85879
 Alpha virt. eigenvalues --    0.87229   0.87868   0.88474   0.88544   0.89080
 Alpha virt. eigenvalues --    0.91119   0.91514   0.92028   0.92586   0.93003
 Alpha virt. eigenvalues --    0.94008   0.94717   0.95285   0.96917   0.97621
 Alpha virt. eigenvalues --    0.97973   0.98621   0.99159   1.00804   1.02270
 Alpha virt. eigenvalues --    1.02344   1.03822   1.04504   1.04712   1.07275
 Alpha virt. eigenvalues --    1.07627   1.08186   1.08578   1.10701   1.12536
 Alpha virt. eigenvalues --    1.13021   1.13497   1.13567   1.15737   1.16220
 Alpha virt. eigenvalues --    1.18013   1.18997   1.19202   1.19233   1.20371
 Alpha virt. eigenvalues --    1.20582   1.20833   1.21598   1.21761   1.22055
 Alpha virt. eigenvalues --    1.23084   1.23211   1.23743   1.24118   1.24697
 Alpha virt. eigenvalues --    1.25441   1.25683   1.26300   1.26957   1.28082
 Alpha virt. eigenvalues --    1.28199   1.28424   1.28489   1.29306   1.29792
 Alpha virt. eigenvalues --    1.31013   1.31213   1.31676   1.32039   1.32780
 Alpha virt. eigenvalues --    1.33784   1.35478   1.36221   1.36584   1.38526
 Alpha virt. eigenvalues --    1.39215   1.41147   1.41905   1.42711   1.44730
 Alpha virt. eigenvalues --    1.44735   1.45256   1.45739   1.45802   1.47765
 Alpha virt. eigenvalues --    1.47925   1.49589   1.51294   1.53051   1.54561
 Alpha virt. eigenvalues --    1.54874   1.56170   1.57470   1.59823   1.60765
 Alpha virt. eigenvalues --    1.62771   1.68291   1.68823   2.05646   2.05732
 Alpha virt. eigenvalues --    2.12026   2.12301   2.14334   2.15090   2.15105
 Alpha virt. eigenvalues --    2.16543   2.18598   2.19167   2.21432   2.21852
 Alpha virt. eigenvalues --    2.24202   2.24475   2.24506   2.25672   2.26574
 Alpha virt. eigenvalues --    2.27843   2.27948   2.28301   2.29471   2.30280
 Alpha virt. eigenvalues --    2.34379   2.35094   2.35407   2.36008   2.39413
 Alpha virt. eigenvalues --    2.40332   2.40548   2.42026   2.43405   2.43764
 Alpha virt. eigenvalues --    2.45640   2.50755   2.51207   2.52232   2.57959
 Alpha virt. eigenvalues --    2.60572   2.61052   2.63297   2.64369   2.66229
 Alpha virt. eigenvalues --    2.66849   2.68769   2.70438   2.73557   2.74300
 Alpha virt. eigenvalues --    2.77016   2.78221   2.78959   2.80280   2.80310
 Alpha virt. eigenvalues --    2.82584   2.84300   2.85165   2.94238   2.95805
 Alpha virt. eigenvalues --    3.16412   3.26088   3.34775   3.35570   3.39191
 Alpha virt. eigenvalues --    3.42194   3.92227   3.95580   3.98359   3.99278
 Alpha virt. eigenvalues --    4.00907   4.02479   4.06036   4.09073   4.10884
 Alpha virt. eigenvalues --    5.28982   5.33778   5.36828  35.38774  35.42356
 Alpha virt. eigenvalues --   35.44351  35.44552  35.45976  35.48321  35.49413
 Alpha virt. eigenvalues --   35.53883  35.53939  35.55935  35.59841  35.62775
 Alpha virt. eigenvalues --   35.93178  35.97005  36.00025  36.04546  36.15907
 Alpha virt. eigenvalues --   36.22110  36.87969  36.93578  37.01862  37.02610
 Alpha virt. eigenvalues --   37.04372  37.13540 113.55649 113.59141 120.23472
 Alpha virt. eigenvalues --  120.23710 120.25349 120.25506
          Condensed to atoms (all electrons):
               1          2          3          4          5          6
     1  Bi  22.227376  -0.029836   0.180756  -0.020459   0.142061  -0.017610
     2  Bi  -0.029836  22.227273   0.180904   0.164943  -0.017715   0.142477
     3  Ge   0.180756   0.180904  31.603500  -0.016357  -0.013818  -0.013930
     4  Bi  -0.020459   0.164943  -0.016357  22.444929   0.184612   0.160941
     5  Sn   0.142061  -0.017715  -0.013818   0.184612  21.401325  -0.000787
     6  Sn  -0.017610   0.142477  -0.013930   0.160941  -0.000787  21.401092
     7  Ge   0.129552   0.063022   0.130125   0.146933   0.122292  -0.015199
     8  Bi   0.164918  -0.020528  -0.016468  -0.022601   0.161687   0.183971
     9  Ge   0.062334   0.128474   0.131134  -0.018895  -0.015255   0.123525
               7          8          9
     1  Bi   0.129552   0.164918   0.062334
     2  Bi   0.063022  -0.020528   0.128474
     3  Ge   0.130125  -0.016468   0.131134
     4  Bi   0.146933  -0.022601  -0.018895
     5  Sn   0.122292   0.161687  -0.015255
     6  Sn  -0.015199   0.183971   0.123525
     7  Ge  31.559811  -0.018882  -0.028095
     8  Bi  -0.018882  22.445110   0.146958
     9  Ge  -0.028095   0.146958  31.559216
 Mulliken charges:
               1
     1  Bi   0.160909
     2  Bi   0.160984
     3  Ge  -0.165845
     4  Bi  -0.024046
     5  Sn   0.035598
     6  Sn   0.035519
     7  Ge  -0.089559
     8  Bi  -0.024165
     9  Ge  -0.089395
 Sum of Mulliken charges =   0.00000
 Mulliken charges with hydrogens summed into heavy atoms:
               1
     1  Bi   0.160909
     2  Bi   0.160984
     3  Ge  -0.165845
     4  Bi  -0.024046
     5  Sn   0.035598
     6  Sn   0.035519
     7  Ge  -0.089559
     8  Bi  -0.024165
     9  Ge  -0.089395
 Electronic spatial extent (au):  <R**2>=           6011.6892
 Charge=              0.0000 electrons
 Dipole moment (field-independent basis, Debye):
    X=              0.0070    Y=             -0.7785    Z=              0.0078  Tot=              0.7786
 Quadrupole moment (field-independent basis, Debye-Ang):
   XX=           -213.7784   YY=           -217.8975   ZZ=           -222.4778
   XY=             -0.0192   XZ=              1.8394   YZ=             -0.0272
 Traceless Quadrupole moment (field-independent basis, Debye-Ang):
   XX=              4.2728   YY=              0.1538   ZZ=             -4.4266
   XY=             -0.0192   XZ=              1.8394   YZ=             -0.0272
 Octapole moment (field-independent basis, Debye-Ang**2):
  XXX=             -0.0137  YYY=            -47.6236  ZZZ=             -0.0007  XYY=              0.0558
  XXY=             -4.5530  XXZ=             -0.0322  XZZ=              0.0209  YZZ=            -16.2338
  YYZ=             -0.0030  XYZ=              8.1308
 Hexadecapole moment (field-independent basis, Debye-Ang**3):
 XXXX=          -3505.0127 YYYY=          -3200.3120 ZZZZ=          -3015.1654 XXXY=              0.0576
 XXXZ=            -18.1438 YYYX=              0.0663 YYYZ=              0.0623 ZZZX=            -50.4973
 ZZZY=             -0.9436 XXYY=          -1092.2490 XXZZ=          -1091.3222 YYZZ=          -1012.6728
 XXYZ=             -0.3147 YYXZ=            -13.6502 ZZXY=             -0.2742
 N-N= 3.547673450131D+03 E-N=-2.468645342624D+04  KE= 6.661942678522D+03
 No NMR shielding tensors so no spin-rotation constants.
 Leave Link  601 at Tue Mar  6 12:09:54 2018, MaxMem=   536870912 cpu:         1.1
 (Enter /share/apps//mg09/l701.exe)
 Compute integral first derivatives.
 ... and contract with generalized density number  0.
   1 Symmetry operations used in ECPInt.
 ECPInt:  NShTT=   10440 NPrTT=   41973 LenC2=    9670 LenP2D=   27422.
 LDataN:  DoStor=T MaxTD1= 9 Len=  602
 Leave Link  701 at Tue Mar  6 12:10:12 2018, MaxMem=   536870912 cpu:        65.6
 (Enter /share/apps//mg09/l702.exe)
 L702 exits ... SP integral derivatives will be done elsewhere.
 Leave Link  702 at Tue Mar  6 12:10:14 2018, MaxMem=   536870912 cpu:         0.1
 (Enter /share/apps//mg09/l703.exe)
 Compute integral first derivatives, UseDBF=F ICtDFT=           0.
 Integral derivatives from FoFJK, PRISM(SPDF).
 Calling FoFJK, ICntrl=      2127 FMM=F ISym2X=0 I1Cent= 0 IOpClX= 0 NMat=1 NMatS=1 NMatT=0.
 FoFJK:  IHMeth= 1 ICntrl=    2127 DoSepK=F KAlg= 0 I1Cent=   0 FoldK=F
 IRaf=         0 NMat=   1 IRICut=       1 DoRegI=T DoRafI=F ISym2E= 0.
 FoFCou: FMM=F IPFlag=           0 FMFlag=      100000 FMFlg1=         800
         NFxFlg=           0 DoJE=F BraDBF=F KetDBF=F FulRan=T
         wScrn=  0.000000 ICntrl=    2127 IOpCl=  0 I1Cent=           0 NGrid=           0
         NMat0=    1 NMatS0=      1 NMatT0=    0 NMatD0=    1 NMtDS0=    0 NMtDT0=    0
 Symmetry not used in FoFCou.
 Defaulting to unpruned grid for atomic number  83.
 Defaulting to unpruned grid for atomic number  83.
 Defaulting to unpruned grid for atomic number  83.
 Defaulting to unpruned grid for atomic number  83.
 Leave Link  703 at Tue Mar  6 12:13:27 2018, MaxMem=   536870912 cpu:       771.8
 (Enter /share/apps//mg09/l716.exe)
 Dipole        = 2.74342076D-03-3.06295686D-01 3.05228881D-03
 ***** Axes restored to original set *****
 -------------------------------------------------------------------
 Center     Atomic                   Forces (Hartrees/Bohr)
 Number     Number              X              Y              Z
 -------------------------------------------------------------------
      1       83          -0.010667480   -0.002105932   -0.001661952
      2       83           0.010625157   -0.002100921    0.001635527
      3       32           0.000022958   -0.015450946    0.000098999
      4       83           0.005862852    0.004777473   -0.002635482
      5       50          -0.004561005    0.008882600   -0.005759100
      6       50           0.005074360    0.008811531    0.006226086
      7       32           0.004099605   -0.003651316   -0.011767905
      8       83          -0.006197217    0.004597092    0.002194470
      9       32          -0.004259230   -0.003759582    0.011669358
 -------------------------------------------------------------------
 Cartesian Forces:  Max     0.015450946 RMS     0.006722856
 Force constants in Cartesian coordinates: 
                1             2             3             4             5 
      1  0.230586D+00
      2  0.114458D-01  0.180047D+00
      3  0.187942D-01  0.543253D-02  0.144275D+00
      4 -0.957160D-02 -0.405482D-02 -0.486720D-02  0.230593D+00
      5  0.411287D-02  0.609120D-02  0.125335D-02 -0.115774D-01  0.180301D+00
      6 -0.485537D-02 -0.127793D-02  0.676153D-02  0.186110D-01 -0.517399D-02
      7 -0.655365D-01  0.463116D-01 -0.145079D-01 -0.657585D-01 -0.463323D-01
      8  0.261435D-02 -0.551936D-01  0.409672D-03 -0.260212D-02 -0.550946D-01
      9 -0.134023D-01  0.131982D-01 -0.246849D-01 -0.133449D-01 -0.131412D-01
     10 -0.297274D-02 -0.518678D-02 -0.339087D-02 -0.310872D-01  0.186803D-01
     11 -0.614919D-02  0.324395D-02 -0.129125D-02 -0.129079D-01 -0.467860D-01
     12  0.459904D-02  0.338378D-02  0.412307D-02  0.697485D-02  0.213020D-01
     13 -0.338044D-01 -0.279096D-01  0.102941D-01  0.332291D-03  0.309230D-02
     14  0.219315D-02 -0.483856D-01  0.210939D-01  0.593652D-02  0.189438D-02
     15 -0.876556D-02  0.583393D-02 -0.204061D-01 -0.736407D-02  0.522252D-02
     16  0.323276D-03 -0.307959D-02  0.649483D-03 -0.337926D-01  0.278327D-01
     17 -0.586748D-02  0.196314D-02 -0.764811D-03 -0.215336D-02 -0.483382D-01
     18 -0.740765D-02 -0.520662D-02  0.174388D-02 -0.875502D-02 -0.615896D-02
     19 -0.588517D-01  0.351226D-02  0.354042D-01 -0.292028D-01  0.259396D-02
     20 -0.109021D-01 -0.240195D-01 -0.212696D-02  0.102945D-01 -0.172794D-01
     21 -0.114739D-02 -0.106472D-01 -0.390546D-01  0.517406D-02 -0.106440D-01
     22 -0.310720D-01 -0.185579D-01 -0.168624D-01 -0.296161D-02  0.520908D-02
     23  0.128795D-01 -0.465214D-01 -0.213501D-01  0.610562D-02  0.320574D-02
     24  0.701792D-02 -0.214569D-01 -0.323708D-01  0.465287D-02 -0.339800D-02
     25 -0.290999D-01 -0.248094D-02 -0.255135D-01 -0.585509D-01 -0.361155D-02
     26 -0.103270D-01 -0.172252D-01 -0.265635D-02  0.109589D-01 -0.239937D-01
     27  0.516712D-02  0.107403D-01 -0.403875D-01 -0.108155D-02  0.107383D-01
                6             7             8             9            10 
      6  0.144283D+00
      7 -0.146033D-01  0.153089D+00
      8 -0.488465D-03  0.833070D-04  0.213319D+00
      9 -0.247291D-01  0.135681D-01  0.233448D-03  0.126335D+00
     10 -0.166848D-01  0.367309D-02 -0.591244D-02  0.376064D-02  0.143129D+00
     11  0.212679D-01 -0.102550D-02 -0.380806D-02  0.677557D-03  0.332560D-01
     12 -0.320075D-01  0.377087D-02  0.366647D-02  0.802804D-02 -0.689217D-02
     13  0.670658D-03  0.755425D-02  0.381965D-02 -0.316766D-02 -0.574208D-01
     14  0.746764D-03  0.848207D-05 -0.361801D-02 -0.443112D-04 -0.139822D-01
     15  0.178919D-02 -0.319170D-02  0.656798D-02  0.395450D-02  0.195803D-02
     16  0.105719D-01  0.757214D-02 -0.381431D-02 -0.322969D-02 -0.234912D-01
     17 -0.213911D-01 -0.213423D-04 -0.357003D-02 -0.209126D-04 -0.102163D-01
     18 -0.207753D-01 -0.324501D-02 -0.658736D-02  0.393814D-02 -0.399397D-03
     19 -0.255886D-01 -0.220344D-01  0.201535D-02  0.603844D-02 -0.304198D-01
     20  0.283374D-02 -0.850193D-02 -0.440214D-01  0.325933D-01 -0.119068D-01
     21 -0.405384D-01  0.717058D-02 -0.116050D-01 -0.502433D-01  0.760766D-02
     22 -0.336017D-02  0.367095D-02  0.587513D-02  0.378376D-02 -0.329265D-02
     23  0.130007D-02  0.101179D-02 -0.380747D-02 -0.752602D-03  0.568984D-03
     24  0.411693D-02  0.376818D-02 -0.372712D-02  0.803052D-02  0.663746D-02
     25  0.352386D-01 -0.222297D-01 -0.207890D-02  0.599367D-02  0.188243D-02
     26  0.218298D-02  0.846592D-02 -0.442057D-01 -0.327435D-01 -0.530080D-02
     27 -0.389008D-01  0.727023D-02  0.115304D-01 -0.506286D-01  0.740345D-02
               11            12            13            14            15 
     11  0.137534D+00
     12 -0.173298D-01  0.127233D+00
     13  0.181442D-01 -0.156802D-01  0.121832D+00
     14 -0.205600D-01  0.470933D-02 -0.155463D-01  0.128309D+00
     15  0.104753D-01 -0.237769D-01  0.615168D-02 -0.343719D-01  0.123220D+00
     16 -0.718431D-03  0.170468D-01  0.298698D-02 -0.485775D-03 -0.661968D-02
     17 -0.190552D-01  0.104413D-01  0.540159D-03  0.373155D-03  0.894129D-03
     18 -0.197300D-01 -0.484578D-01 -0.661647D-02 -0.837957D-03 -0.402439D-02
     19 -0.282918D-01 -0.158393D-01 -0.218895D-01  0.137290D-01  0.151755D-01
     20 -0.539750D-01 -0.284909D-01  0.142757D-01 -0.405471D-01 -0.199596D-01
     21 -0.262233D-03 -0.380680D-01 -0.377401D-02  0.131343D-01 -0.298303D-01
     22 -0.624758D-03  0.666486D-02 -0.236859D-01  0.102741D-01 -0.129071D-03
     23  0.490916D-03 -0.396377D-03  0.535641D-03 -0.193035D-01  0.200565D-01
     24  0.344167D-03  0.375423D-02  0.172191D-01 -0.101749D-01 -0.488589D-01
     25 -0.168274D-02 -0.644716D-03  0.409483D-02 -0.212702D-02  0.278488D-02
     26  0.291564D-02  0.271421D-02  0.304831D-02  0.183775D-02  0.528115D-02
     27  0.584831D-02 -0.828159D-03 -0.509711D-02  0.574479D-02 -0.206712D-02
               16            17            18            19            20 
     16  0.121174D+00
     17  0.155087D-01  0.127618D+00
     18  0.643355D-02  0.343552D-01  0.123340D+00
     19  0.408389D-02  0.207424D-02  0.278891D-02  0.149553D+00
     20 -0.303134D-02  0.193189D-02 -0.525005D-02  0.360008D-02  0.168879D+00
     21 -0.512162D-02 -0.570898D-02 -0.214027D-02 -0.218893D-01  0.272938D-01
     22 -0.567499D-01  0.140651D-01  0.204063D-02  0.189030D-02  0.525746D-02
     23 -0.178384D-01 -0.202506D-01 -0.104495D-01  0.170770D-02  0.298199D-02
     24 -0.157741D-01 -0.457337D-02 -0.237611D-01 -0.632432D-03 -0.268276D-02
     25 -0.221067D-01 -0.139297D-01  0.151605D-01  0.687063D-02  0.914467D-03
     26 -0.143735D-01 -0.406721D-01  0.198651D-01 -0.940853D-03  0.604929D-02
     27 -0.395664D-02 -0.132315D-01 -0.298630D-01  0.454259D-02 -0.421055D-02
               21            22            23            24            25 
     21  0.210640D+00
     22  0.742542D-02  0.142600D+00
     23 -0.584689D-02 -0.333157D-01  0.137431D+00
     24 -0.891700D-03 -0.724565D-02  0.172404D-01  0.127916D+00
     25  0.455460D-02 -0.303993D-01  0.283448D-01 -0.156433D-01  0.149539D+00
     26  0.428629D-02  0.118174D-01 -0.542269D-01  0.284285D-01 -0.334843D-02
     27 -0.987393D-02  0.768263D-02  0.198413D-03 -0.379349D-01 -0.219307D-01
               26            27 
     26  0.169521D+00
     27 -0.273584D-01  0.210484D+00
 Leave Link  716 at Tue Mar  6 12:13:31 2018, MaxMem=   536870912 cpu:         0.1
 (Enter /share/apps//mg09/l103.exe)

 GradGradGradGradGradGradGradGradGradGradGradGradGradGradGradGradGradGrad
 Berny optimization.
 Search for a local minimum.
 Step number   1 out of a maximum of  100
 All quantities printed in internal units (Hartrees-Bohrs-Radians)
 Second derivative matrix not updated -- first step.
 ITU=  0
     Eigenvalues ---    0.07652   0.11968   0.12003   0.12815   0.12837
     Eigenvalues ---    0.13823   0.15125   0.15753   0.15979   0.16398
     Eigenvalues ---    0.18368   0.21171   0.21949   0.23772   0.24759
     Eigenvalues ---    0.26101   0.27252   0.29032   0.29952   0.31251
     Eigenvalues ---    0.32835
 RFO step:  Lambda=-7.20167716D-03 EMin= 7.65182836D-02
 Linear search not attempted -- first point.
 TrRot= -0.000030 -0.002687  0.000006  0.000000  0.000068  0.000000
 Variable       Old X    -DE/DX   Delta X   Delta X   Delta X     New X
                                 (Linear)    (Quad)   (Total)
    X1        4.01244  -0.01067   0.00000  -0.05035  -0.05029   3.96215
    Y1        2.17268  -0.00211   0.00000  -0.02144  -0.02412   2.14856
    Z1        1.26884  -0.00166   0.00000  -0.01553  -0.01579   1.25305
    X2       -4.00936   0.01063   0.00000   0.05050   0.05039  -3.95897
    Y2        2.18585  -0.00210   0.00000  -0.02109  -0.02378   2.16208
    Z2       -1.24882   0.00164   0.00000   0.01480   0.01507  -1.23375
    X3        0.00613   0.00002   0.00000   0.00012   0.00009   0.00622
    Y3        5.48837  -0.01545   0.00000  -0.08369  -0.08638   5.40199
    Z3        0.00988   0.00010   0.00000   0.00097   0.00097   0.01085
    X4       -3.55205   0.00586   0.00000   0.04243   0.04254  -3.50950
    Y4       -2.37410   0.00478   0.00000   0.03542   0.03273  -2.34137
    Z4        2.19532  -0.00264   0.00000  -0.02726  -0.02701   2.16831
    X5        1.99960  -0.00456   0.00000  -0.03256  -0.03236   1.96724
    Y5       -2.84332   0.00888   0.00000   0.05948   0.05679  -2.78652
    Z5        3.42732  -0.00576   0.00000  -0.04342  -0.04354   3.38377
    X6       -2.01122   0.00507   0.00000   0.03546   0.03520  -1.97602
    Y6       -2.80884   0.00881   0.00000   0.05806   0.05538  -2.75346
    Z6       -3.45806   0.00623   0.00000   0.04611   0.04625  -3.41182
    X7       -0.88106   0.00410   0.00000   0.01884   0.01908  -0.86198
    Y7        2.15010  -0.00365   0.00000  -0.01803  -0.02071   2.12939
    Z7        4.09506  -0.01177   0.00000  -0.06493  -0.06487   4.03019
    X8        3.55158  -0.00620   0.00000  -0.04408  -0.04426   3.50732
    Y8       -2.36239   0.00460   0.00000   0.03407   0.03138  -2.33101
    Z8       -2.20528   0.00219   0.00000   0.02463   0.02440  -2.18088
    X9        0.88630  -0.00426   0.00000  -0.02009  -0.02039   0.86591
    Y9        2.17334  -0.00376   0.00000  -0.01861  -0.02129   2.15205
    Z9       -4.08300   0.01167   0.00000   0.06458   0.06452  -4.01848
         Item               Value     Threshold  Converged?
 Maximum Force            0.015451     0.000450     NO 
 RMS     Force            0.006723     0.000300     NO 
 Maximum Displacement     0.086375     0.001800     NO 
 RMS     Displacement     0.040346     0.001200     NO 
 Predicted change in Energy=-3.759306D-03
 Lowest energy point so far.  Saving SCF results.
 GradGradGradGradGradGradGradGradGradGradGradGradGradGradGradGradGradGrad

 Leave Link  103 at Tue Mar  6 12:13:32 2018, MaxMem=   536870912 cpu:         0.2
 (Enter /share/apps//mg09/l202.exe)
                          Input orientation:                          
 ---------------------------------------------------------------------
 Center     Atomic      Atomic             Coordinates (Angstroms)
 Number     Number       Type             X           Y           Z
 ---------------------------------------------------------------------
      1         83           0        2.096679    1.136968    0.663084
      2         83           0       -2.094997    1.144121   -0.652872
      3         32           0        0.003292    2.858612    0.005742
      4         83           0       -1.857149   -1.238998    1.147422
      5         50           0        1.041018   -1.474565    1.790616
      6         50           0       -1.045666   -1.457069   -1.805455
      7         32           0       -0.456138    1.126824    2.132686
      8         83           0        1.855993   -1.233517   -1.154071
      9         32           0        0.458220    1.138815   -2.126486
 ---------------------------------------------------------------------
                    Distance matrix (angstroms):
                    1          2          3          4          5
     1  Bi   0.000000
     2  Bi   4.393398   0.000000
     3  Ge   2.788983   2.788561   0.000000
     4  Bi   4.638163   2.996146   4.642746   0.000000
     5  Sn   3.034115   4.760540   4.799903   2.978013   0.000000
     6  Sn   4.764142   3.032447   4.796442   3.070104   4.157677
     7  Ge   2.945625   3.231948   2.781017   2.920735   3.020879
     8  Bi   2.996528   4.638393   4.639309   4.368561   3.064877
     9  Ge   3.235159   2.947963   2.776879   4.661910   4.744797
                    6          7          8          9
     6  Sn   0.000000
     7  Ge   4.746893   0.000000
     8  Bi   2.982264   4.660465   0.000000
     9  Ge   3.017176   4.356230   2.920158   0.000000
 Stoichiometry    Bi4Ge3Sn2
 Framework group  C1[X(Bi4Ge3Sn2)]
 Deg. of freedom    21
 Full point group                 C1      NOp   1
 RotChk:  IX=0 Diff= 2.47D-03
 Largest Abelian subgroup         C1      NOp   1
 Largest concise Abelian subgroup C1      NOp   1
                         Standard orientation:                         
 ---------------------------------------------------------------------
 Center     Atomic      Atomic             Coordinates (Angstroms)
 Number     Number       Type             X           Y           Z
 ---------------------------------------------------------------------
      1         83           0       -2.095736    1.135854   -0.663314
      2         83           0        2.094816    1.139544    0.656234
      3         32           0       -0.002294    2.855767   -0.001628
      4         83           0        1.857653   -1.240816   -1.147797
      5         50           0       -1.040048   -1.474383   -1.793817
      6         50           0        1.043565   -1.462975    1.804058
      7         32           0        0.458334    1.126971   -2.130746
      8         83           0       -1.857455   -1.237411    1.150527
      9         32           0       -0.459662    1.132972    2.127655
 ---------------------------------------------------------------------
 Rotational constants (GHZ):      0.1086847      0.0881769      0.0835710
 Leave Link  202 at Tue Mar  6 12:13:34 2018, MaxMem=   536870912 cpu:         0.0
 (Enter /share/apps//mg09/l301.exe)
 Standard basis: def2TZVP (5D, 7F)
 Ernie: Thresh=  0.10000D-02 Tol=  0.10000D-05 Strict=F.
 There are   519 symmetry adapted cartesian basis functions of A   symmetry.
 There are   444 symmetry adapted basis functions of A   symmetry.
   444 basis functions,   963 primitive gaussians,   519 cartesian basis functions
   116 alpha electrons      116 beta electrons
       nuclear repulsion energy      3599.9189649723 Hartrees.
 IExCor= 1009 DFT=T Ex+Corr=PBE1PBE ExCW=0 ScaHFX=  0.250000
 ScaDFX=  0.750000  0.750000  1.000000  1.000000 ScalE2=  1.000000  1.000000
 IRadAn=      0 IRanWt=     -1 IRanGd=            0 ICorTp=0 IEmpDi=  4
 NAtoms=    9 NActive=    9 NUniq=    9 SFac= 1.00D+00 NAtFMM=   60 NAOKFM=F Big=F
 Integral buffers will be    131072 words long.
 Raffenetti 2 integral format.
 Two-electron integral symmetry is turned on.
 Leave Link  301 at Tue Mar  6 12:13:35 2018, MaxMem=   536870912 cpu:         0.2
 (Enter /share/apps//mg09/l302.exe)
 NPDir=0 NMtPBC=     1 NCelOv=     1 NCel=       1 NClECP=     1 NCelD=      1
         NCelK=      1 NCelE2=     1 NClLst=     1 CellRange=     0.0.
 One-electron integrals computed using PRISM.
   1 Symmetry operations used in ECPInt.
 ECPInt:  NShTT=   10440 NPrTT=   41973 LenC2=    9696 LenP2D=   27584.
 LDataN:  DoStor=T MaxTD1= 8 Len=  415
 NBasis=   444 RedAO= T EigKep=  1.37D-03  NBF=   444
 NBsUse=   444 1.00D-06 EigRej= -1.00D+00 NBFU=   444
 Precomputing XC quadrature grid using
 IXCGrd= 4 IRadAn=           0 IRanWt=          -1 IRanGd=           0 AccXCQ= 0.00D+00.
 Defaulting to unpruned grid for atomic number  83.
 Defaulting to unpruned grid for atomic number  83.
 Defaulting to unpruned grid for atomic number  83.
 Generated NRdTot=       0 NPtTot=           0 NUsed=           0 NTot=          32
 NSgBfM=   504   504   504   504   504 MxSgAt=     9 MxSgA2=     9.
 Leave Link  302 at Tue Mar  6 12:13:41 2018, MaxMem=   536870912 cpu:        25.0
 (Enter /share/apps//mg09/l303.exe)
 DipDrv:  MaxL=1.
 Leave Link  303 at Tue Mar  6 12:13:41 2018, MaxMem=   536870912 cpu:         0.2
 (Enter /share/apps//mg09/l401.exe)
 Initial guess from the checkpoint file:  "Isomer_18.chk"
 B after Tr=     0.000000    0.000000    0.000000
         Rot=    1.000000   -0.000744    0.000467    0.000158 Ang=  -0.10 deg.
 Guess basis will be translated and rotated to current coordinates.
 JPrj=2 DoOrth=T DoCkMO=T.
 Generating alternative initial guess.
 ExpMin= 4.62D-02 ExpMax= 4.66D+05 ExpMxC= 4.50D+03 IAcc=2 IRadAn=         4 AccDes= 0.00D+00
 Harris functional with IExCor= 1009 and IRadAn=       4 diagonalized for initial guess.
 HarFok:  IExCor= 1009 AccDes= 0.00D+00 IRadAn=         4 IDoV= 1 UseB2=F ITyADJ=14
 ICtDFT=  3500011 ScaDFX=  1.000000  1.000000  1.000000  1.000000
 Defaulting to unpruned grid for atomic number  83.
 Defaulting to unpruned grid for atomic number  83.
 Defaulting to unpruned grid for atomic number  83.
 Defaulting to unpruned grid for atomic number  83.
 FoFCou: FMM=F IPFlag=           0 FMFlag=      100000 FMFlg1=           0
         NFxFlg=           0 DoJE=T BraDBF=F KetDBF=T FulRan=T
         wScrn=  0.000000 ICntrl=     500 IOpCl=  0 I1Cent=   200000004 NGrid=           0
         NMat0=    1 NMatS0=      1 NMatT0=    0 NMatD0=    1 NMtDS0=    0 NMtDT0=    0
 Petite list used in FoFCou.
 Harris En= -7518.60694719875    
 Leave Link  401 at Tue Mar  6 12:13:44 2018, MaxMem=   536870912 cpu:        11.3
 (Enter /share/apps//mg09/l502.exe)
 Closed shell SCF:
 Using DIIS extrapolation, IDIIS=  1040.
 Integral symmetry usage will be decided dynamically.
 IVT=     1410107 IEndB=     1410107 NGot=   536870912 MDV=   536322046
 LenX=   536322046 LenY=   536052166
 Requested convergence on RMS density matrix=1.00D-08 within 768 cycles.
 Requested convergence on MAX density matrix=1.00D-06.
 Requested convergence on             energy=1.00D-06.
 No special actions if energy rises.
 Fock matrices will be formed incrementally for  20 cycles.

 Cycle   1  Pass 1  IDiag  1:
 FoFJK:  IHMeth= 1 ICntrl=       0 DoSepK=F KAlg= 0 I1Cent=   0 FoldK=F
 IRaf= 880000000 NMat=   1 IRICut=       1 DoRegI=T DoRafI=F ISym2E= 0.
 FoFCou: FMM=F IPFlag=           0 FMFlag=      100000 FMFlg1=           0
         NFxFlg=           0 DoJE=F BraDBF=F KetDBF=F FulRan=T
         wScrn=  0.000000 ICntrl=       0 IOpCl=  0 I1Cent=           0 NGrid=           0
         NMat0=    1 NMatS0=      1 NMatT0=    0 NMatD0=    1 NMtDS0=    0 NMtDT0=    0
 Symmetry not used in FoFCou.
 Defaulting to unpruned grid for atomic number  83.
 Defaulting to unpruned grid for atomic number  83.
 Defaulting to unpruned grid for atomic number  83.
 Defaulting to unpruned grid for atomic number  83.
 E= -7517.81598424366    
 DIIS: error= 6.50D-03 at cycle   1 NSaved=   1.
 NSaved= 1 IEnMin= 1 EnMin= -7517.81598424366     IErMin= 1 ErrMin= 6.50D-03
 ErrMax= 6.50D-03  0.00D+00 EMaxC= 1.00D-01 BMatC= 7.80D-03 BMatP= 7.80D-03
 IDIUse=3 WtCom= 9.35D-01 WtEn= 6.50D-02
 Coeff-Com:  0.100D+01
 Coeff-En:   0.100D+01
 Coeff:      0.100D+01
 Gap=     8.035 Goal=   None    Shift=    0.000
 GapD=    8.035 DampG=2.000 DampE=1.000 DampFc=2.0000 IDamp=-1.
 RMSDP=1.63D-04 MaxDP=3.78D-03              OVMax= 1.95D-02

 Cycle   2  Pass 1  IDiag  1:
 RMSU=  1.62D-04    CP:  1.00D+00
 E= -7517.81596829314     Delta-E=        0.000015950522 Rises=F Damp=F
 DIIS: error= 1.49D-03 at cycle   2 NSaved=   2.
 NSaved= 2 IEnMin= 1 EnMin= -7517.81598424366     IErMin= 2 ErrMin= 1.49D-03
 ErrMax= 1.49D-03  0.00D+00 EMaxC= 1.00D-01 BMatC= 1.43D-03 BMatP= 7.80D-03
 IDIUse=3 WtCom= 9.85D-01 WtEn= 1.49D-02
 Coeff-Com:  0.192D+00 0.808D+00
 Coeff-En:   0.505D+00 0.495D+00
 Coeff:      0.197D+00 0.803D+00
 Gap=     0.122 Goal=   None    Shift=    0.000
 RMSDP=2.00D-04 MaxDP=7.30D-03 DE= 1.60D-05 OVMax= 1.94D-02

 Cycle   3  Pass 1  IDiag  1:
 RMSU=  1.81D-04    CP:  9.99D-01  5.01D-01
 E= -7517.81394881706     Delta-E=        0.002019476080 Rises=F Damp=F
 DIIS: error= 2.23D-03 at cycle   3 NSaved=   3.
 NSaved= 3 IEnMin= 1 EnMin= -7517.81598424366     IErMin= 2 ErrMin= 1.49D-03
 ErrMax= 2.23D-03  0.00D+00 EMaxC= 1.00D-01 BMatC= 3.67D-03 BMatP= 1.43D-03
 IDIUse=3 WtCom= 1.75D-01 WtEn= 8.25D-01
 Coeff-Com:  0.743D-02 0.614D+00 0.378D+00
 Coeff-En:   0.000D+00 0.683D+00 0.317D+00
 Coeff:      0.130D-02 0.671D+00 0.328D+00
 Gap=     0.122 Goal=   None    Shift=    0.000
 RMSDP=1.17D-04 MaxDP=3.98D-03 DE= 2.02D-03 OVMax= 1.59D-02

 Cycle   4  Pass 1  IDiag  1:
 RMSU=  4.67D-05    CP:  9.99D-01  7.96D-01  4.73D-01
 E= -7517.81686977404     Delta-E=       -0.002920956978 Rises=F Damp=F
 DIIS: error= 5.73D-04 at cycle   4 NSaved=   4.
 NSaved= 4 IEnMin= 4 EnMin= -7517.81686977404     IErMin= 4 ErrMin= 5.73D-04
 ErrMax= 5.73D-04  0.00D+00 EMaxC= 1.00D-01 BMatC= 2.53D-04 BMatP= 1.43D-03
 IDIUse=3 WtCom= 9.94D-01 WtEn= 5.73D-03
 Coeff-Com:  0.550D-04 0.457D+00 0.236D+00 0.307D+00
 Coeff-En:   0.000D+00 0.139D+00 0.000D+00 0.861D+00
 Coeff:      0.546D-04 0.455D+00 0.235D+00 0.310D+00
 Gap=     0.122 Goal=   None    Shift=    0.000
 RMSDP=3.97D-05 MaxDP=1.79D-03 DE=-2.92D-03 OVMax= 4.15D-03

 Cycle   5  Pass 1  IDiag  1:
 RMSU=  1.30D-05    CP:  9.99D-01  8.54D-01  4.24D-01  2.54D-01
 E= -7517.81708611363     Delta-E=       -0.000216339586 Rises=F Damp=F
 DIIS: error= 9.05D-05 at cycle   5 NSaved=   5.
 NSaved= 5 IEnMin= 5 EnMin= -7517.81708611363     IErMin= 5 ErrMin= 9.05D-05
 ErrMax= 9.05D-05  0.00D+00 EMaxC= 1.00D-01 BMatC= 1.07D-05 BMatP= 2.53D-04
 IDIUse=1 WtCom= 1.00D+00 WtEn= 0.00D+00
 Coeff-Com: -0.871D-03 0.223D+00 0.106D+00 0.214D+00 0.458D+00
 Coeff:     -0.871D-03 0.223D+00 0.106D+00 0.214D+00 0.458D+00
 Gap=     0.122 Goal=   None    Shift=    0.000
 RMSDP=8.62D-06 MaxDP=4.59D-04 DE=-2.16D-04 OVMax= 9.95D-04

 Cycle   6  Pass 1  IDiag  1:
 RMSU=  3.41D-06    CP:  9.99D-01  8.64D-01  4.19D-01  3.82D-01  6.51D-01
 E= -7517.81709697475     Delta-E=       -0.000010861122 Rises=F Damp=F
 DIIS: error= 1.40D-05 at cycle   6 NSaved=   6.
 NSaved= 6 IEnMin= 6 EnMin= -7517.81709697475     IErMin= 6 ErrMin= 1.40D-05
 ErrMax= 1.40D-05  0.00D+00 EMaxC= 1.00D-01 BMatC= 2.92D-07 BMatP= 1.07D-05
 IDIUse=1 WtCom= 1.00D+00 WtEn= 0.00D+00
 Coeff-Com: -0.377D-03 0.667D-01 0.325D-01 0.709D-01 0.205D+00 0.625D+00
 Coeff:     -0.377D-03 0.667D-01 0.325D-01 0.709D-01 0.205D+00 0.625D+00
 Gap=     0.122 Goal=   None    Shift=    0.000
 RMSDP=1.95D-06 MaxDP=1.19D-04 DE=-1.09D-05 OVMax= 3.24D-04

 Cycle   7  Pass 1  IDiag  1:
 RMSU=  1.47D-06    CP:  9.99D-01  8.68D-01  4.21D-01  3.76D-01  7.19D-01
                    CP:  9.45D-01
 E= -7517.81709721006     Delta-E=       -0.000000235312 Rises=F Damp=F
 DIIS: error= 5.97D-06 at cycle   7 NSaved=   7.
 NSaved= 7 IEnMin= 7 EnMin= -7517.81709721006     IErMin= 7 ErrMin= 5.97D-06
 ErrMax= 5.97D-06  0.00D+00 EMaxC= 1.00D-01 BMatC= 7.50D-08 BMatP= 2.92D-07
 IDIUse=1 WtCom= 1.00D+00 WtEn= 0.00D+00
 Coeff-Com: -0.305D-04-0.115D-01-0.406D-02-0.479D-02 0.173D-01 0.354D+00
 Coeff-Com:  0.649D+00
 Coeff:     -0.305D-04-0.115D-01-0.406D-02-0.479D-02 0.173D-01 0.354D+00
 Coeff:      0.649D+00
 Gap=     0.122 Goal=   None    Shift=    0.000
 RMSDP=9.47D-07 MaxDP=5.79D-05 DE=-2.35D-07 OVMax= 1.01D-04

 Cycle   8  Pass 1  IDiag  1:
 RMSU=  3.91D-07    CP:  9.99D-01  8.69D-01  4.24D-01  3.79D-01  7.35D-01
                    CP:  1.12D+00  7.72D-01
 E= -7517.81709727945     Delta-E=       -0.000000069393 Rises=F Damp=F
 DIIS: error= 2.43D-06 at cycle   8 NSaved=   8.
 NSaved= 8 IEnMin= 8 EnMin= -7517.81709727945     IErMin= 8 ErrMin= 2.43D-06
 ErrMax= 2.43D-06  0.00D+00 EMaxC= 1.00D-01 BMatC= 8.14D-09 BMatP= 7.50D-08
 IDIUse=1 WtCom= 1.00D+00 WtEn= 0.00D+00
 Coeff-Com:  0.231D-04-0.131D-01-0.535D-02-0.921D-02-0.126D-01 0.132D+00
 Coeff-Com:  0.363D+00 0.545D+00
 Coeff:      0.231D-04-0.131D-01-0.535D-02-0.921D-02-0.126D-01 0.132D+00
 Coeff:      0.363D+00 0.545D+00
 Gap=     0.122 Goal=   None    Shift=    0.000
 RMSDP=3.44D-07 MaxDP=1.59D-05 DE=-6.94D-08 OVMax= 5.41D-05

 Cycle   9  Pass 1  IDiag  1:
 RMSU=  2.26D-07    CP:  9.99D-01  8.69D-01  4.24D-01  3.82D-01  7.45D-01
                    CP:  1.13D+00  8.49D-01  7.09D-01
 E= -7517.81709728495     Delta-E=       -0.000000005499 Rises=F Damp=F
 DIIS: error= 1.72D-06 at cycle   9 NSaved=   9.
 NSaved= 9 IEnMin= 9 EnMin= -7517.81709728495     IErMin= 9 ErrMin= 1.72D-06
 ErrMax= 1.72D-06  0.00D+00 EMaxC= 1.00D-01 BMatC= 2.09D-09 BMatP= 8.14D-09
 IDIUse=1 WtCom= 1.00D+00 WtEn= 0.00D+00
 Coeff-Com:  0.190D-04-0.882D-02-0.360D-02-0.639D-02-0.108D-01 0.726D-01
 Coeff-Com:  0.221D+00 0.404D+00 0.332D+00
 Coeff:      0.190D-04-0.882D-02-0.360D-02-0.639D-02-0.108D-01 0.726D-01
 Coeff:      0.221D+00 0.404D+00 0.332D+00
 Gap=     0.122 Goal=   None    Shift=    0.000
 RMSDP=1.63D-07 MaxDP=6.40D-06 DE=-5.50D-09 OVMax= 1.77D-05

 Cycle  10  Pass 1  IDiag  1:
 RMSU=  9.32D-08    CP:  9.99D-01  8.70D-01  4.24D-01  3.82D-01  7.47D-01
                    CP:  1.13D+00  8.52D-01  8.68D-01  4.99D-01
 E= -7517.81709728762     Delta-E=       -0.000000002672 Rises=F Damp=F
 DIIS: error= 5.05D-07 at cycle  10 NSaved=  10.
 NSaved=10 IEnMin=10 EnMin= -7517.81709728762     IErMin=10 ErrMin= 5.05D-07
 ErrMax= 5.05D-07  0.00D+00 EMaxC= 1.00D-01 BMatC= 2.29D-10 BMatP= 2.09D-09
 IDIUse=1 WtCom= 1.00D+00 WtEn= 0.00D+00
 Coeff-Com:  0.207D-05-0.441D-04 0.421D-04-0.180D-03-0.201D-02-0.999D-02
 Coeff-Com: -0.162D-01 0.383D-01 0.248D+00 0.742D+00
 Coeff:      0.207D-05-0.441D-04 0.421D-04-0.180D-03-0.201D-02-0.999D-02
 Coeff:     -0.162D-01 0.383D-01 0.248D+00 0.742D+00
 Gap=     0.122 Goal=   None    Shift=    0.000
 RMSDP=6.93D-08 MaxDP=3.42D-06 DE=-2.67D-09 OVMax= 1.28D-05

 Cycle  11  Pass 1  IDiag  1:
 RMSU=  2.66D-08    CP:  9.99D-01  8.70D-01  4.24D-01  3.83D-01  7.48D-01
                    CP:  1.14D+00  8.61D-01  8.98D-01  7.00D-01  8.99D-01
 E= -7517.81709728805     Delta-E=       -0.000000000422 Rises=F Damp=F
 DIIS: error= 1.32D-07 at cycle  11 NSaved=  11.
 NSaved=11 IEnMin=11 EnMin= -7517.81709728805     IErMin=11 ErrMin= 1.32D-07
 ErrMax= 1.32D-07  0.00D+00 EMaxC= 1.00D-01 BMatC= 2.12D-11 BMatP= 2.29D-10
 IDIUse=1 WtCom= 1.00D+00 WtEn= 0.00D+00
 Coeff-Com: -0.596D-06 0.721D-03 0.335D-03 0.429D-03-0.375D-04-0.109D-01
 Coeff-Com: -0.271D-01-0.125D-01 0.110D+00 0.415D+00 0.524D+00
 Coeff:     -0.596D-06 0.721D-03 0.335D-03 0.429D-03-0.375D-04-0.109D-01
 Coeff:     -0.271D-01-0.125D-01 0.110D+00 0.415D+00 0.524D+00
 Gap=     0.122 Goal=   None    Shift=    0.000
 RMSDP=1.72D-08 MaxDP=8.58D-07 DE=-4.22D-10 OVMax= 2.99D-06

 Cycle  12  Pass 1  IDiag  1:
 RMSU=  1.12D-08    CP:  9.99D-01  8.70D-01  4.24D-01  3.83D-01  7.48D-01
                    CP:  1.15D+00  8.63D-01  9.09D-01  7.13D-01  9.74D-01
                    CP:  7.35D-01
 E= -7517.81709728809     Delta-E=       -0.000000000049 Rises=F Damp=F
 DIIS: error= 3.60D-08 at cycle  12 NSaved=  12.
 NSaved=12 IEnMin=12 EnMin= -7517.81709728809     IErMin=12 ErrMin= 3.60D-08
 ErrMax= 3.60D-08  0.00D+00 EMaxC= 1.00D-01 BMatC= 2.02D-12 BMatP= 2.12D-11
 IDIUse=1 WtCom= 1.00D+00 WtEn= 0.00D+00
 Coeff-Com: -0.490D-06 0.328D-03 0.144D-03 0.206D-03 0.241D-03-0.380D-02
 Coeff-Com: -0.106D-01-0.117D-01 0.173D-01 0.975D-01 0.279D+00 0.631D+00
 Coeff:     -0.490D-06 0.328D-03 0.144D-03 0.206D-03 0.241D-03-0.380D-02
 Coeff:     -0.106D-01-0.117D-01 0.173D-01 0.975D-01 0.279D+00 0.631D+00
 Gap=     0.122 Goal=   None    Shift=    0.000
 RMSDP=7.16D-09 MaxDP=5.08D-07 DE=-4.91D-11 OVMax= 1.10D-06

 SCF Done:  E(RPBE1PBE) =  -7517.81709729     A.U. after   12 cycles
            NFock= 12  Conv=0.72D-08     -V/T= 2.1284
 KE= 6.662147512026D+03 PE=-2.479101078623D+04 EE= 7.011127211942D+03
 Leave Link  502 at Tue Mar  6 12:22:30 2018, MaxMem=   536870912 cpu:      2101.2
 (Enter /share/apps//mg09/l701.exe)
 Compute integral first derivatives.
 ... and contract with generalized density number  0.
   1 Symmetry operations used in ECPInt.
 ECPInt:  NShTT=   10440 NPrTT=   41973 LenC2=    9696 LenP2D=   27584.
 LDataN:  DoStor=T MaxTD1= 9 Len=  602
 Leave Link  701 at Tue Mar  6 12:22:46 2018, MaxMem=   536870912 cpu:        64.9
 (Enter /share/apps//mg09/l702.exe)
 L702 exits ... SP integral derivatives will be done elsewhere.
 Leave Link  702 at Tue Mar  6 12:22:46 2018, MaxMem=   536870912 cpu:         0.1
 (Enter /share/apps//mg09/l703.exe)
 Compute integral first derivatives, UseDBF=F ICtDFT=           0.
 Integral derivatives from FoFJK, PRISM(SPDF).
 Calling FoFJK, ICntrl=      2127 FMM=F ISym2X=0 I1Cent= 0 IOpClX= 0 NMat=1 NMatS=1 NMatT=0.
 FoFJK:  IHMeth= 1 ICntrl=    2127 DoSepK=F KAlg= 0 I1Cent=   0 FoldK=F
 IRaf=         0 NMat=   1 IRICut=       1 DoRegI=T DoRafI=F ISym2E= 0.
 FoFCou: FMM=F IPFlag=           0 FMFlag=      100000 FMFlg1=         800
         NFxFlg=           0 DoJE=F BraDBF=F KetDBF=F FulRan=T
         wScrn=  0.000000 ICntrl=    2127 IOpCl=  0 I1Cent=           0 NGrid=           0
         NMat0=    1 NMatS0=      1 NMatT0=    0 NMatD0=    1 NMtDS0=    0 NMtDT0=    0
 Symmetry not used in FoFCou.
 Defaulting to unpruned grid for atomic number  83.
 Defaulting to unpruned grid for atomic number  83.
 Defaulting to unpruned grid for atomic number  83.
 Defaulting to unpruned grid for atomic number  83.
 Leave Link  703 at Tue Mar  6 12:25:57 2018, MaxMem=   536870912 cpu:       762.3
 (Enter /share/apps//mg09/l716.exe)
 Dipole        = 1.96497476D-03-3.13196951D-01 1.26403277D-03
 ***** Axes restored to original set *****
 -------------------------------------------------------------------
 Center     Atomic                   Forces (Hartrees/Bohr)
 Number     Number              X              Y              Z
 -------------------------------------------------------------------
      1       83          -0.003790610    0.000940837    0.000160977
      2       83           0.003751130    0.001033105   -0.000184777
      3       32           0.000023232   -0.007755539    0.000097380
      4       83           0.001360869    0.000556875    0.000599038
      5       50          -0.002173952    0.004421714   -0.001451867
      6       50           0.002502510    0.004337968    0.001774492
      7       32           0.002404204   -0.001987929   -0.006399078
      8       83          -0.001559814    0.000480094   -0.000903137
      9       32          -0.002517569   -0.002027125    0.006306971
 -------------------------------------------------------------------
 Cartesian Forces:  Max     0.007755539 RMS     0.003055845
 Leave Link  716 at Tue Mar  6 12:25:57 2018, MaxMem=   536870912 cpu:         0.1
 (Enter /share/apps//mg09/l103.exe)

 GradGradGradGradGradGradGradGradGradGradGradGradGradGradGradGradGradGrad
 Berny optimization.
 Search for a local minimum.
 Step number   2 out of a maximum of  100
 All quantities printed in internal units (Hartrees-Bohrs-Radians)
 Update second derivatives using D2CorN and points    1    2
 DE= -5.11D-03 DEPred=-3.76D-03 R= 1.36D+00
 TightC=F SS=  1.41D+00  RLast= 2.10D-01 DXNew= 5.0454D-01 6.2893D-01
 Trust test= 1.36D+00 RLast= 2.10D-01 DXMaxT set to 5.05D-01
 ITU=  1  0
     Eigenvalues ---    0.07648   0.09449   0.11986   0.12006   0.12825
     Eigenvalues ---    0.13075   0.13990   0.15754   0.15953   0.16399
     Eigenvalues ---    0.18307   0.21170   0.21950   0.23773   0.24576
     Eigenvalues ---    0.26102   0.26892   0.29032   0.29911   0.31267
     Eigenvalues ---    0.32837
 RFO step:  Lambda=-3.44654631D-04 EMin= 7.64812649D-02
 Quartic linear search produced a step of  0.60801.
 TrRot= -0.000013 -0.000375  0.000004  0.000000  0.000011  0.000000
 Variable       Old X    -DE/DX   Delta X   Delta X   Delta X     New X
                                 (Linear)    (Quad)   (Total)
    X1        3.96215  -0.00379  -0.03058   0.00321  -0.02737   3.93478
    Y1        2.14856   0.00094  -0.01467   0.00880  -0.00624   2.14232
    Z1        1.25305   0.00016  -0.00960   0.00363  -0.00601   1.24704
    X2       -3.95897   0.00375   0.03063  -0.00317   0.02744  -3.93153
    Y2        2.16208   0.00103  -0.01446   0.00961  -0.00522   2.15686
    Z2       -1.23375  -0.00018   0.00917  -0.00407   0.00514  -1.22861
    X3        0.00622   0.00002   0.00005   0.00021   0.00026   0.00648
    Y3        5.40199  -0.00776  -0.05252  -0.01148  -0.06438   5.33762
    Z3        0.01085   0.00010   0.00059   0.00073   0.00132   0.01217
    X4       -3.50950   0.00136   0.02587  -0.00744   0.01843  -3.49107
    Y4       -2.34137   0.00056   0.01990  -0.00945   0.01008  -2.33129
    Z4        2.16831   0.00060  -0.01642   0.01111  -0.00527   2.16304
    X5        1.96724  -0.00217  -0.01967   0.00157  -0.01808   1.94916
    Y5       -2.78652   0.00442   0.03453   0.01064   0.04479  -2.74173
    Z5        3.38377  -0.00145  -0.02648   0.01104  -0.01545   3.36832
    X6       -1.97602   0.00250   0.02140  -0.00042   0.02092  -1.95510
    Y6       -2.75346   0.00434   0.03367   0.00974   0.04304  -2.71042
    Z6       -3.41182   0.00177   0.02812  -0.00974   0.01840  -3.39342
    X7       -0.86198   0.00240   0.01160   0.00209   0.01372  -0.84825
    Y7        2.12939  -0.00199  -0.01259  -0.00245  -0.01542   2.11397
    Z7        4.03019  -0.00640  -0.03944  -0.00923  -0.04866   3.98154
    X8        3.50732  -0.00156  -0.02691   0.00689  -0.02006   3.48726
    Y8       -2.33101   0.00048   0.01908  -0.00966   0.00904  -2.32197
    Z8       -2.18088  -0.00090   0.01484  -0.01237   0.00243  -2.17845
    X9        0.86591  -0.00252  -0.01240  -0.00282  -0.01528   0.85063
    Y9        2.15205  -0.00203  -0.01295  -0.00238  -0.01570   2.13635
    Z9       -4.01848   0.00631   0.03923   0.00887   0.04810  -3.97038
         Item               Value     Threshold  Converged?
 Maximum Force            0.007756     0.000450     NO 
 RMS     Force            0.003056     0.000300     NO 
 Maximum Displacement     0.064376     0.001800     NO 
 RMS     Displacement     0.025475     0.001200     NO 
 Predicted change in Energy=-1.070042D-03
 Lowest energy point so far.  Saving SCF results.
 GradGradGradGradGradGradGradGradGradGradGradGradGradGradGradGradGradGrad

 Leave Link  103 at Tue Mar  6 12:25:58 2018, MaxMem=   536870912 cpu:         0.0
 (Enter /share/apps//mg09/l202.exe)
                          Input orientation:                          
 ---------------------------------------------------------------------
 Center     Atomic      Atomic             Coordinates (Angstroms)
 Number     Number       Type             X           Y           Z
 ---------------------------------------------------------------------
      1         83           0        2.082198    1.133665    0.659905
      2         83           0       -2.080476    1.141360   -0.650151
      3         32           0        0.003428    2.824546    0.006442
      4         83           0       -1.847394   -1.233663    1.144632
      5         50           0        1.031451   -1.450861    1.782439
      6         50           0       -1.034594   -1.434295   -1.795718
[...]
     X     X                        X        X     X                                                        X                        
     X     X                        X              X                                                        X                        
     X     X                        X              X                                                        X                        
     X     X                        X              X                                                        X                        
     X                              X              X                                                        X                        
     X                              X              X                                                                                 
     X                              X              X                                                                                 
     X                              X              X                                                                                 
     X                              X              X                                                                                 
     X                              X              X                                                                                 
     X                              X              X                                                                                 
     X                              X              X                                                                                 
     X                              X              X                                                                                 
     X                              X                                                                                                
 
 ***** Axes restored to original set *****
 -------------------------------------------------------------------
 Center     Atomic                   Forces (Hartrees/Bohr)
 Number     Number              X              Y              Z
 -------------------------------------------------------------------
      1       83          -0.000111406   -0.000010629   -0.000089443
      2       83           0.000103808   -0.000018778    0.000068164
      3       32          -0.000005574    0.000010175    0.000006075
      4       83           0.000037529   -0.000011984   -0.000001172
      5       50           0.000090197    0.000013344    0.000116511
      6       50          -0.000091968    0.000013089   -0.000115765
      7       32          -0.000050318    0.000012422   -0.000014908
      8       83          -0.000041282   -0.000019687   -0.000001924
      9       32           0.000069014    0.000012046    0.000032461
 -------------------------------------------------------------------
 Cartesian Forces:  Max     0.000116511 RMS     0.000058661
 Force constants in Cartesian coordinates: 
                1             2             3             4             5 
      1  0.821325D-01
      2  0.390069D-03  0.807958D-01
      3  0.515479D-02  0.750948D-02  0.417789D-01
      4 -0.776230D-02  0.211785D-02 -0.118705D-02  0.821706D-01
      5 -0.209298D-02  0.883936D-03  0.129536D-03 -0.416945D-03  0.808442D-01
      6 -0.120508D-02 -0.910864D-04 -0.462708D-02  0.515504D-02 -0.729053D-02
      7 -0.320907D-01  0.238895D-01 -0.125370D-01 -0.322041D-01 -0.237907D-01
      8  0.204879D-01 -0.212949D-01  0.671649D-02 -0.203891D-01 -0.210946D-01
      9 -0.118921D-01  0.823651D-02  0.400214D-03 -0.120170D-01 -0.830598D-02
     10 -0.293204D-02 -0.931448D-03  0.230319D-02 -0.549298D-02  0.309883D-02
     11  0.214155D-03 -0.253151D-02 -0.108578D-02  0.346041D-02 -0.284191D-01
     12 -0.105401D-02 -0.142906D-02 -0.335137D-03 -0.417655D-02  0.241830D-01
     13 -0.893404D-02 -0.126824D-01  0.392062D-02 -0.257234D-03  0.604486D-02
     14 -0.101886D-01 -0.254466D-01  0.154672D-01  0.122065D-02 -0.266906D-02
     15  0.367372D-02  0.135913D-01 -0.169660D-02 -0.124295D-03 -0.116203D-03
     16 -0.271806D-03 -0.601207D-02 -0.616138D-02 -0.887818D-02  0.125915D-01
     17 -0.122868D-02 -0.265091D-02 -0.579291D-03  0.101013D-01 -0.252297D-01
     18 -0.129569D-03  0.119143D-03 -0.309689D-02  0.371047D-02 -0.137496D-01
     19 -0.220409D-01 -0.189356D-02  0.153854D-01 -0.263649D-02  0.179970D-02
     20 -0.369817D-02 -0.100440D-02 -0.272959D-02  0.437802D-03 -0.708616D-03
     21  0.122858D-01 -0.380478D-02 -0.802138D-02 -0.264243D-02 -0.799264D-04
     22 -0.550548D-02 -0.311767D-02 -0.329081D-02 -0.293536D-02  0.916611D-03
     23 -0.347973D-02 -0.280270D-01 -0.265014D-01 -0.212400D-03 -0.255132D-02
     24 -0.424989D-02 -0.242493D-01 -0.172273D-01 -0.104965D-02  0.141709D-02
     25 -0.259528D-02 -0.176019D-02 -0.358773D-02 -0.220040D-01  0.184921D-02
     26 -0.404007D-03 -0.724421D-03  0.107336D-02  0.368049D-02 -0.105573D-02
     27 -0.258362D-02  0.117707D-03 -0.717472D-02  0.123315D-01  0.381264D-02
                6             7             8             9            10 
      6  0.417357D-01
      7 -0.126851D-01  0.689088D-01
      8 -0.678709D-02 -0.285075D-04  0.816317D-01
      9  0.330831D-03  0.167712D-01  0.135263D-03  0.338839D-01
     10 -0.321856D-02  0.392486D-03  0.194135D-03  0.551779D-04  0.659827D-01
     11  0.264197D-01 -0.559186D-02 -0.311932D-02  0.288336D-02  0.127595D-01
     12 -0.168506D-01  0.487289D-03  0.357666D-03  0.186442D-03  0.149803D-02
     13 -0.611796D-02 -0.264768D-02 -0.487899D-03  0.182564D-02 -0.418571D-01
     14  0.593851D-03  0.219686D-02 -0.278797D-02  0.199661D-02 -0.660080D-03
     15 -0.309222D-02  0.101897D-02 -0.115367D-02 -0.256915D-02 -0.710247D-02
     16  0.396447D-02 -0.266223D-02  0.476001D-03  0.182809D-02 -0.338881D-02
     17 -0.156214D-01 -0.219945D-02 -0.278175D-02 -0.199709D-02 -0.213590D-02
     18 -0.191398D-02  0.100314D-02  0.114752D-02 -0.257566D-02  0.778606D-02
     19 -0.362348D-02 -0.485050D-04 -0.205702D-02  0.169945D-02 -0.799455D-02
     20 -0.102306D-02 -0.136951D-02 -0.137646D-01  0.109840D-01 -0.108666D-01
     21 -0.726995D-02  0.271567D-02  0.884492D-02 -0.148350D-01 -0.295879D-02
     22  0.231159D-02  0.405118D-03 -0.201962D-03  0.487686D-04 -0.389936D-02
     23  0.105852D-02  0.558299D-02 -0.311039D-02 -0.290492D-02 -0.317925D-02
     24 -0.303927D-03  0.529145D-03 -0.383558D-03  0.163562D-03  0.127519D-02
     25  0.154191D-01 -0.531724D-04  0.200647D-02  0.168079D-02 -0.810354D-03
     26  0.274115D-02  0.131075D-02 -0.136783D-01 -0.110277D-01  0.172083D-02
     27 -0.800879D-02  0.269667D-02 -0.887753D-02 -0.149851D-01  0.362174D-03
               11            12            13            14            15 
     11  0.598921D-01
     12 -0.202952D-01  0.579932D-01
     13  0.132042D-02 -0.102009D-01  0.593441D-01
     14 -0.264736D-02  0.269981D-02 -0.205733D-02  0.516953D-01
     15  0.317681D-02 -0.517377D-03 -0.147980D-03 -0.222054D-01  0.450139D-01
     16 -0.214532D-02  0.849320D-02 -0.782856D-03 -0.110681D-02 -0.517916D-03
     17 -0.347278D-02 -0.232601D-02  0.111842D-02  0.743258D-03  0.231475D-02
     18 -0.331031D-03 -0.273352D-01 -0.521930D-03 -0.229394D-02 -0.221750D-02
     19 -0.139249D-01 -0.233636D-02 -0.142342D-02  0.966400D-02  0.132785D-02
     20 -0.186129D-01 -0.865273D-02  0.885014D-02 -0.133456D-01 -0.182978D-02
     21 -0.949000D-02 -0.781590D-02  0.245723D-02  0.461226D-03 -0.334885D-02
     22  0.317920D-02  0.129649D-02 -0.338274D-02  0.208002D-02  0.779853D-02
     23  0.213356D-02  0.217342D-02  0.208766D-02 -0.349475D-02  0.492156D-03
     24 -0.214159D-02 -0.356337D-02  0.851329D-02  0.247638D-02 -0.273354D-01
     25  0.728422D-03  0.599284D-02 -0.590668D-04 -0.114876D-02 -0.592642D-02
     26 -0.322271D-02  0.328909D-02 -0.419382D-02 -0.204728D-02  0.572996D-02
     27  0.863692D-03 -0.176203D-02  0.272029D-03  0.804240D-03 -0.423676D-02
               16            17            18            19            20 
     16  0.593383D-01
     17  0.212109D-02  0.514100D-01
     18 -0.901342D-04  0.222217D-01  0.453112D-01
     19 -0.420759D-04  0.117940D-02 -0.592787D-02  0.395949D-01
     20  0.418596D-02 -0.200985D-02 -0.570465D-02  0.509014D-02  0.510868D-01
     21  0.302145D-03 -0.792978D-03 -0.427873D-02 -0.131662D-01  0.895979D-02
     22 -0.418375D-01  0.779784D-03 -0.710246D-02 -0.809604D-03 -0.172274D-02
     23 -0.118284D-02 -0.260661D-02 -0.317780D-02 -0.764162D-03 -0.319342D-02
     24 -0.102171D-01 -0.269632D-02 -0.563938D-03  0.597865D-02 -0.330357D-02
     25 -0.147483D-02 -0.973593D-02  0.127229D-02 -0.459944D-02 -0.907046D-03
     26 -0.892748D-02 -0.134016D-01  0.176861D-02  0.906406D-03  0.155260D-02
     27  0.239860D-02 -0.523364D-03 -0.332921D-02  0.662580D-03  0.329962D-02
               21            22            23            24            25 
     21  0.562989D-01
     22  0.353098D-03  0.659255D-01
     23 -0.867450D-03 -0.127813D-01  0.596021D-01
     24 -0.179142D-02  0.145936D-02  0.202878D-01  0.583265D-01
     25  0.653514D-03 -0.796058D-02  0.139290D-01 -0.223901D-02  0.395567D-01
     26 -0.323079D-02  0.108680D-01 -0.187521D-01  0.859302D-02 -0.496120D-02
     27 -0.893763D-02 -0.287458D-02  0.943968D-02 -0.770469D-02 -0.132654D-01
               26            27 
     26  0.513295D-01
     27 -0.893668D-02  0.561390D-01
 Leave Link  716 at Tue Mar  6 14:38:13 2018, MaxMem=   536870912 cpu:         0.1
 (Enter /share/apps//mg09/l103.exe)

 GradGradGradGradGradGradGradGradGradGradGradGradGradGradGradGradGradGrad
 Berny optimization.
 Search for a local minimum.
 Step number   1 out of a maximum of    2
 All quantities printed in internal units (Hartrees-Bohrs-Radians)
 Second derivative matrix not updated -- analytic derivatives used.
 ITU=  0
     Eigenvalues ---    0.00517   0.00634   0.03054   0.03501   0.03746
     Eigenvalues ---    0.04718   0.05157   0.05613   0.05723   0.05759
     Eigenvalues ---    0.05764   0.06375   0.07846   0.09335   0.10077
     Eigenvalues ---    0.11273   0.11548   0.13195   0.13583   0.14530
     Eigenvalues ---    0.14619
 Angle between quadratic step and forces=  41.06 degrees.
 Linear search not attempted -- first point.
 TrRot=  0.000025 -0.000007  0.000056  0.000002 -0.000081  0.000002
 MatCor failed.
 Variable       Old X    -DE/DX   Delta X   Delta X   Delta X     New X
                                 (Linear)    (Quad)   (Total)
    X1        3.96292  -0.00011   0.00000  -0.00123  -0.00131   3.96161
    Y1        2.15765  -0.00001   0.00000   0.00050   0.00051   2.15816
    Z1        1.22671  -0.00009   0.00000  -0.01180  -0.01142   1.21529
    X2       -3.95873   0.00010   0.00000   0.00096   0.00108  -3.95765
    Y2        2.17425  -0.00002   0.00000  -0.00023  -0.00026   2.17399
    Z2       -1.21165   0.00007   0.00000   0.00821   0.00794  -1.20371
    X3        0.00640  -0.00001   0.00000  -0.00140  -0.00140   0.00500
    Y3        5.32195   0.00001   0.00000   0.00319   0.00318   5.32513
    Z3        0.01516   0.00001   0.00000   0.00134   0.00139   0.01656
    X4       -3.50515   0.00004   0.00000   0.00984   0.00970  -3.49545
    Y4       -2.35583  -0.00001   0.00000  -0.01003  -0.01005  -2.36587
    Z4        2.15877   0.00000   0.00000  -0.00648  -0.00671   2.15207
    X5        1.94048   0.00009   0.00000   0.00800   0.00776   1.94824
    Y5       -2.70322   0.00001   0.00000   0.01018   0.01018  -2.69304
    Z5        3.38758   0.00012   0.00000   0.01594   0.01616   3.40374
    X6       -1.94580  -0.00009   0.00000  -0.00841  -0.00810  -1.95389
    Y6       -2.67589   0.00001   0.00000   0.00935   0.00933  -2.66656
    Z6       -3.40842  -0.00012   0.00000  -0.01549  -0.01560  -3.42402
    X7       -0.84193  -0.00005   0.00000  -0.00545  -0.00576  -0.84769
    Y7        2.09293   0.00001   0.00000  -0.00097  -0.00098   2.09195
    Z7        3.94494  -0.00001   0.00000  -0.00354  -0.00355   3.94139
    X8        3.50068  -0.00004   0.00000  -0.01046  -0.01025   3.49042
    Y8       -2.34685  -0.00002   0.00000  -0.01174  -0.01173  -2.35858
    Z8       -2.17688   0.00000   0.00000   0.00624   0.00658  -2.17030
    X9        0.84349   0.00007   0.00000   0.00794   0.00828   0.85177
    Y9        2.11671   0.00001   0.00000  -0.00018  -0.00018   2.11653
    Z9       -3.93497   0.00003   0.00000   0.00508   0.00520  -3.92977
         Item               Value     Threshold  Converged?
 Maximum Force            0.000117     0.000450     YES
 RMS     Force            0.000059     0.000300     YES
 Maximum Displacement     0.016156     0.001800     NO 
 RMS     Displacement     0.007934     0.001200     NO 
 Predicted change in Energy=-4.721048D-06
 GradGradGradGradGradGradGradGradGradGradGradGradGradGradGradGradGradGrad

 Leave Link  103 at Tue Mar  6 14:38:13 2018, MaxMem=   536870912 cpu:         0.1
 (Enter /share/apps//mg09/l9999.exe)
 1\1\GINC-COMPUTE-0-4\Freq\RPBE1PBE\def2TZVP\Bi4Ge3Sn2\RODRIGO\06-Mar-2
 018\0\\#P Geom=AllCheck Guess=TCheck SCRF=Check GenChk RPBE1PBE/def2TZ
 VP Freq\\01Final_coords.xyz_18\\0,1\Bi,2.0970880413,1.1417799977,0.649
 1483887\Bi,-2.0948689662,1.1505621006,-0.6411798658\Ge,0.0033876612,2.
 8162567353,0.0080242157\Bi,-1.8548453059,-1.2466494318,1.1423738341\Sn
 ,1.026858539,-1.4304830851,1.7926314694\Sn,-1.0296712807,-1.4160215652
 ,-1.8036582921\Ge,-0.4455313973,1.1075293208,2.0875749786\Bi,1.8524783
 142,-1.2418971473,-1.1519528725\Ge,0.4463573944,1.120114075,-2.0822958
 56\\Version=ES64L-G09RevD.01\State=1-A\HF=-7517.8185159\RMSD=9.127e-09
 \RMSF=5.866e-05\ZeroPoint=0.0057176\Thermal=0.0232767\Dipole=-0.000946
 5,-0.3036975,-0.0003735\DipoleDeriv=0.0668106,0.1184307,0.0432602,0.03
 18343,-0.0279883,0.0208772,-0.0353327,-0.0309252,0.0675118,0.0668295,-
 0.118973,0.0423891,-0.0318216,-0.027351,-0.0216376,-0.0355958,0.030258
 5,0.0670683,-0.1930247,0.0002082,-0.001287,0.0005073,0.2058634,0.00103
 84,0.0041917,0.0013644,-0.1818344,-0.0403639,0.0948988,-0.1522957,0.02
 22756,-0.1572364,-0.0319804,-0.1020192,-0.0340289,-0.1736036,0.015158,
 -0.0852137,0.1561732,-0.048727,0.1252459,-0.1223692,0.1115336,-0.06625
 96,0.1988767,0.0152631,0.0844693,0.1568797,0.0480724,0.1236925,0.12160
 8,0.1117928,0.065367,0.2003307,0.0550811,-0.0565012,-0.0463427,0.00046
 89,-0.0421996,0.0352198,0.0237344,0.0375451,-0.0019265,-0.040964,-0.09
 391,-0.1529839,-0.0218467,-0.1577902,0.0326819,-0.1021893,0.0343801,-0
 .1737062,0.0552103,0.0565909,-0.045793,-0.0007631,-0.0422363,-0.035438
 1,0.0238844,-0.0377014,-0.0027169\Polar=383.8229322,-0.0104695,379.098
 5716,5.7075452,-0.0005151,372.7622579\PG=C01 [X(Bi4Ge3Sn2)]\NImag=0\\0
 .08213246,0.00039007,0.08079582,0.00515479,0.00750948,0.04177889,-0.00
 776230,0.00211785,-0.00118705,0.08217063,-0.00209298,0.00088394,0.0001
 2954,-0.00041694,0.08084417,-0.00120508,-0.00009109,-0.00462708,0.0051
 5504,-0.00729053,0.04173571,-0.03209066,0.02388946,-0.01253702,-0.0322
 0414,-0.02379074,-0.01268510,0.06890879,0.02048790,-0.02129491,0.00671
 649,-0.02038912,-0.02109457,-0.00678709,-0.00002851,0.08163175,-0.0118
 9211,0.00823651,0.00040021,-0.01201705,-0.00830598,0.00033083,0.016771
 24,0.00013526,0.03388392,-0.00293204,-0.00093145,0.00230319,-0.0054929
 8,0.00309883,-0.00321856,0.00039249,0.00019414,0.00005518,0.06598270,0
 .00021415,-0.00253151,-0.00108578,0.00346041,-0.02841907,0.02641969,-0
 .00559186,-0.00311932,0.00288336,0.01275948,0.05989208,-0.00105401,-0.
 00142906,-0.00033514,-0.00417655,0.02418297,-0.01685060,0.00048729,0.0
 0035767,0.00018644,0.00149803,-0.02029515,0.05799323,-0.00893404,-0.01
 268245,0.00392062,-0.00025723,0.00604486,-0.00611796,-0.00264768,-0.00
 048790,0.00182564,-0.04185709,0.00132042,-0.01020094,0.05934413,-0.010
 18856,-0.02544656,0.01546721,0.00122065,-0.00266906,0.00059385,0.00219
 686,-0.00278797,0.00199661,-0.00066008,-0.00264736,0.00269981,-0.00205
 733,0.05169533,0.00367372,0.01359134,-0.00169660,-0.00012429,-0.000116
 20,-0.00309222,0.00101897,-0.00115367,-0.00256915,-0.00710247,0.003176
 81,-0.00051738,-0.00014798,-0.02220537,0.04501387,-0.00027181,-0.00601
 207,-0.00616138,-0.00887818,0.01259146,0.00396447,-0.00266223,0.000476
 00,0.00182809,-0.00338881,-0.00214532,0.00849320,-0.00078286,-0.001106
 81,-0.00051792,0.05933827,-0.00122868,-0.00265091,-0.00057929,0.010101
 27,-0.02522974,-0.01562145,-0.00219945,-0.00278175,-0.00199709,-0.0021
 3590,-0.00347278,-0.00232601,0.00111842,0.00074326,0.00231475,0.002121
 09,0.05140997,-0.00012957,0.00011914,-0.00309689,0.00371047,-0.0137495
 9,-0.00191398,0.00100314,0.00114752,-0.00257566,0.00778606,-0.00033103
 ,-0.02733525,-0.00052193,-0.00229394,-0.00221750,-0.00009013,0.0222217
 4,0.04531116,-0.02204085,-0.00189356,0.01538539,-0.00263649,0.00179970
 ,-0.00362348,-0.00004851,-0.00205702,0.00169945,-0.00799455,-0.0139249
 0,-0.00233636,-0.00142342,0.00966400,0.00132785,-0.00004208,0.00117940
 ,-0.00592787,0.03959493,-0.00369817,-0.00100440,-0.00272959,0.00043780
 ,-0.00070862,-0.00102306,-0.00136951,-0.01376457,0.01098397,-0.0108665
 8,-0.01861290,-0.00865273,0.00885014,-0.01334562,-0.00182978,0.0041859
 6,-0.00200985,-0.00570465,0.00509014,0.05108678,0.01228578,-0.00380478
 ,-0.00802138,-0.00264243,-0.00007993,-0.00726995,0.00271567,0.00884492
 ,-0.01483502,-0.00295879,-0.00949000,-0.00781590,0.00245723,0.00046123
 ,-0.00334885,0.00030215,-0.00079298,-0.00427873,-0.01316620,0.00895979
 ,0.05629888,-0.00550548,-0.00311767,-0.00329081,-0.00293536,0.00091661
 ,0.00231159,0.00040512,-0.00020196,0.00004877,-0.00389936,0.00317920,0
 .00129649,-0.00338274,0.00208002,0.00779853,-0.04183748,0.00077978,-0.
 00710246,-0.00080960,-0.00172274,0.00035310,0.06592548,-0.00347973,-0.
 02802704,-0.02650141,-0.00021240,-0.00255132,0.00105852,0.00558299,-0.
 00311039,-0.00290492,-0.00317925,0.00213356,0.00217342,0.00208766,-0.0
 0349475,0.00049216,-0.00118284,-0.00260661,-0.00317780,-0.00076416,-0.
 00319342,-0.00086745,-0.01278127,0.05960205,-0.00424989,-0.02424925,-0
 .01722731,-0.00104965,0.00141709,-0.00030393,0.00052915,-0.00038356,0.
 00016356,0.00127519,-0.00214159,-0.00356337,0.00851329,0.00247638,-0.0
 2733542,-0.01021708,-0.00269632,-0.00056394,0.00597865,-0.00330357,-0.
 00179142,0.00145936,0.02028781,0.05832651,-0.00259528,-0.00176019,-0.0
 0358773,-0.02200395,0.00184921,0.01541909,-0.00005317,0.00200647,0.001
 68079,-0.00081035,0.00072842,0.00599284,-0.00005907,-0.00114876,-0.005
 92642,-0.00147483,-0.00973593,0.00127229,-0.00459944,-0.00090705,0.000
 65351,-0.00796058,0.01392901,-0.00223901,0.03955668,-0.00040401,-0.000
 72442,0.00107336,0.00368049,-0.00105573,0.00274115,0.00131075,-0.01367
 825,-0.01102773,0.00172083,-0.00322271,0.00328909,-0.00419382,-0.00204
 728,0.00572996,-0.00892748,-0.01340159,0.00176861,0.00090641,0.0015526
 0,-0.00323079,0.01086802,-0.01875207,0.00859302,-0.00496120,0.05132945
 ,-0.00258362,0.00011771,-0.00717472,0.01233152,0.00381264,-0.00800879,
 0.00269667,-0.00887753,-0.01498514,0.00036217,0.00086369,-0.00176203,0
 .00027203,0.00080424,-0.00423676,0.00239860,-0.00052336,-0.00332921,0.
 00066258,0.00329962,-0.00893763,-0.00287458,0.00943968,-0.00770469,-0.
 01326536,-0.00893668,0.05613897\\0.00011141,0.00001063,0.00008944,-0.0
 0010381,0.00001878,-0.00006816,0.00000557,-0.00001018,-0.00000608,-0.0
 0003753,0.00001198,0.00000117,-0.00009020,-0.00001334,-0.00011651,0.00
 009197,-0.00001309,0.00011576,0.00005032,-0.00001242,0.00001491,0.0000
 4128,0.00001969,0.00000192,-0.00006901,-0.00001205,-0.00003246\\\@


 ALL PAPERS THAT YOU SAVE WILL NEVER BE NEEDED UNTIL
 SUCH TIME AS THEY ARE DISPOSED OF, WHEN THEY BECOME
 ESSENTIAL.

           -- JOHN CORCORAN IN
              PAUL DICKSON'S "THE OFFICIAL RULES"
 Job cpu time:       0 days  3 hours 47 minutes 23.7 seconds.
 File lengths (MBytes):  RWF=    299 Int=      0 D2E=      0 Chk=     16 Scr=      1
 Normal termination of Gaussian 09 at Tue Mar  6 14:38:15 2018.
