 Entering Gaussian System, Link 0=/share/apps/mg09/g09
 Initial command:
 /share/apps//mg09/l1.exe "/state/partition1/gauss_tmp/Gau-6832.inp" -scrdir="/state/partition1/gauss_tmp/"
 Entering Link 1 = /share/apps//mg09/l1.exe PID=      6837.
  
 Copyright (c) 1988,1990,1992,1993,1995,1998,2003,2009,2013,
            Gaussian, Inc.  All Rights Reserved.
  
 This is part of the Gaussian(R) 09 program.  It is based on
 the Gaussian(R) 03 system (copyright 2003, Gaussian, Inc.),
 the Gaussian(R) 98 system (copyright 1998, Gaussian, Inc.),
 the Gaussian(R) 94 system (copyright 1995, Gaussian, Inc.),
 the Gaussian 92(TM) system (copyright 1992, Gaussian, Inc.),
 the Gaussian 90(TM) system (copyright 1990, Gaussian, Inc.),
 the Gaussian 88(TM) system (copyright 1988, Gaussian, Inc.),
 the Gaussian 86(TM) system (copyright 1986, Carnegie Mellon
 University), and the Gaussian 82(TM) system (copyright 1983,
 Carnegie Mellon University). Gaussian is a federally registered
 trademark of Gaussian, Inc.
  
 This software contains proprietary and confidential information,
 including trade secrets, belonging to Gaussian, Inc.
  
 This software is provided under written license and may be
 used, copied, transmitted, or stored only in accord with that
 written license.
  
 The following legend is applicable only to US Government
 contracts under FAR:
  
                    RESTRICTED RIGHTS LEGEND
  
 Use, reproduction and disclosure by the US Government is
 subject to restrictions as set forth in subparagraphs (a)
 and (c) of the Commercial Computer Software - Restricted
 Rights clause in FAR 52.227-19.
  
 Gaussian, Inc.
 340 Quinnipiac St., Bldg. 40, Wallingford CT 06492
  
  
 ---------------------------------------------------------------
 Warning -- This program may not be used in any manner that
 competes with the business of Gaussian, Inc. or will provide
 assistance to any competitor of Gaussian, Inc.  The licensee
 of this program is prohibited from giving any competitor of
 Gaussian, Inc. access to this program.  By using this program,
 the user acknowledges that Gaussian, Inc. is engaged in the
 business of creating and licensing software in the field of
 computational chemistry and represents and warrants to the
 licensee that it is not a competitor of Gaussian, Inc. and that
 it will not use this program in any manner prohibited above.
 ---------------------------------------------------------------
  

 Cite this work as:
 Gaussian 09, Revision D.01,
 M. J. Frisch, G. W. Trucks, H. B. Schlegel, G. E. Scuseria, 
 M. A. Robb, J. R. Cheeseman, G. Scalmani, V. Barone, B. Mennucci, 
 G. A. Petersson, H. Nakatsuji, M. Caricato, X. Li, H. P. Hratchian, 
 A. F. Izmaylov, J. Bloino, G. Zheng, J. L. Sonnenberg, M. Hada, 
 M. Ehara, K. Toyota, R. Fukuda, J. Hasegawa, M. Ishida, T. Nakajima, 
 Y. Honda, O. Kitao, H. Nakai, T. Vreven, J. A. Montgomery, Jr., 
 J. E. Peralta, F. Ogliaro, M. Bearpark, J. J. Heyd, E. Brothers, 
 K. N. Kudin, V. N. Staroverov, T. Keith, R. Kobayashi, J. Normand, 
 K. Raghavachari, A. Rendell, J. C. Burant, S. S. Iyengar, J. Tomasi, 
 M. Cossi, N. Rega, J. M. Millam, M. Klene, J. E. Knox, J. B. Cross, 
 V. Bakken, C. Adamo, J. Jaramillo, R. Gomperts, R. E. Stratmann, 
 O. Yazyev, A. J. Austin, R. Cammi, C. Pomelli, J. W. Ochterski, 
 R. L. Martin, K. Morokuma, V. G. Zakrzewski, G. A. Voth, 
 P. Salvador, J. J. Dannenberg, S. Dapprich, A. D. Daniels, 
 O. Farkas, J. B. Foresman, J. V. Ortiz, J. Cioslowski, 
 and D. J. Fox, Gaussian, Inc., Wallingford CT, 2013.
 
 ******************************************
 Gaussian 09:  ES64L-G09RevD.01 24-Apr-2013
                 6-Mar-2018 
 ******************************************
 %NProcShared=4
 Will use up to    4 processors via shared memory.
 %LindaWorkers=compute-0-11
 %chk=Isomer_29.chk
 %NProc=4
 Will use up to    4 processors via shared memory.
 %mem=4GB
 SetLPE:  input flags=" -vv -opt "Tsnet.Node.lindarsharg: ssh" "
 SetLPE:    new flags=" -vv -opt "Tsnet.Node.lindarsharg: ssh"  -nodelist 'compute-0-11.local'"
 Will use up to    1 processors via Linda.
 ----------------------------------------------------------------------
 #p PBE1PBE/Def2TZVP scf=(maxcycle=768) opt=(cartesian,maxcycle=512) fr
 eq
 ----------------------------------------------------------------------
 1/6=512,10=7,14=-1,18=10,26=3,38=1/1,3;
 2/12=2,17=6,18=5,29=2,40=1/2;
 3/5=44,7=101,11=2,16=1,25=1,30=1,71=1,74=-13/1,2,3;
 4//1;
 5/5=2,7=768,38=5/2;
 6/7=2,8=2,9=2,10=2,28=1/1;
 7/7=1,29=1/1,2,3,16;
 1/6=512,10=7,14=-1,18=10,26=3/3(2);
 2/29=1/2;
 99/12=1/99;
 2/29=1/2;
 3/5=44,7=101,11=2,16=1,25=1,30=1,71=1,74=-13/1,2,3;
 4/5=5,16=3,69=1/1;
 5/5=2,7=768,38=5/2;
 7/7=1/1,2,3,16;
 1/6=512,14=-1,18=10,26=3/3(-5);
 2/29=1/2;
 6/7=2,8=2,9=2,10=2,19=2,28=1/1;
 99/9=1,12=1/99;
 Leave Link    1 at Tue Mar  6 11:57:55 2018, MaxMem=   536870912 cpu:         0.4
 (Enter /share/apps//mg09/l101.exe)
 ---------------------
 01Final_coords.xyz_29
 ---------------------
 Symbolic Z-matrix:
 Charge =  0 Multiplicity = 1
 83                    1.58996   1.63237  -0.58503 
 83                   -2.00995  -1.3605   -0.764 
 50                    1.60533  -0.30309   2.13378 
 50                   -1.60908  -0.30155   2.1305 
 32                    0.00015   2.13041   1.78144 
 32                   -0.00045  -2.48797   0.99717 
 83                    2.01172  -1.35939  -0.76192 
 83                   -1.58972   1.63233  -0.58497 
 32                    0.00094  -0.11078  -2.44897 
 
 NAtoms=      9 NQM=        9 NQMF=       0 NMMI=      0 NMMIF=      0
                NMic=       0 NMicF=      0.
                    Isotopes and Nuclear Properties:
 (Nuclear quadrupole moments (NQMom) in fm**2, nuclear magnetic moments (NMagM)
  in nuclear magnetons)

  Atom         1           2           3           4           5           6           7           8           9
 IAtWgt=         209         209         118         118          74          74         209         209          74
 AtmWgt= 208.9804000 208.9804000 117.9018000 117.9018000  73.9211788  73.9211788 208.9804000 208.9804000  73.9211788
 NucSpn=           9           9           0           0           0           0           9           9           0
 AtZEff=   0.0000000   0.0000000   0.0000000   0.0000000   0.0000000   0.0000000   0.0000000   0.0000000   0.0000000
 NQMom=  -51.6000000 -51.6000000   0.0000000   0.0000000   0.0000000   0.0000000 -51.6000000 -51.6000000   0.0000000
 NMagM=    4.1106000   4.1106000   0.0000000   0.0000000   0.0000000   0.0000000   4.1106000   4.1106000   0.0000000
 AtZNuc=  83.0000000  83.0000000  50.0000000  50.0000000  32.0000000  32.0000000  83.0000000  83.0000000  32.0000000
 Leave Link  101 at Tue Mar  6 11:57:55 2018, MaxMem=   536870912 cpu:         0.4
 (Enter /share/apps//mg09/l103.exe)

 GradGradGradGradGradGradGradGradGradGradGradGradGradGradGradGradGradGrad
 Berny optimization.
 Initialization pass.
 No Z-matrix variables, so optimization will use Cartesian coordinates.
 Trust Radius=3.00D-01 FncErr=1.00D-07 GrdErr=1.00D-06
 Number of steps in this run=    100 maximum allowed number of steps=    100.
 GradGradGradGradGradGradGradGradGradGradGradGradGradGradGradGradGradGrad

 Leave Link  103 at Tue Mar  6 11:57:55 2018, MaxMem=   536870912 cpu:         0.1
 (Enter /share/apps//mg09/l202.exe)
 ---------------------------------------------------------------------------------------------------
                            Z-MATRIX (ANGSTROMS AND DEGREES)
   CD    Cent   Atom    N1       Length/X        N2       Alpha/Y        N3        Beta/Z          J
 ---------------------------------------------------------------------------------------------------
      1      1  Bi       0   1.589962          1.632370         -0.585034
      2      2  Bi       0  -2.009950         -1.360502         -0.764003
      3      3  Sn       0   1.605330         -0.303094          2.133779
      4      4  Sn       0  -1.609076         -0.301550          2.130497
      5      5  Ge       0   0.000151          2.130406          1.781438
      6      6  Ge       0  -0.000453         -2.487967          0.997171
      7      7  Bi       0   2.011721         -1.359387         -0.761924
      8      8  Bi       0  -1.589720          1.632329         -0.584972
      9      9  Ge       0   0.000938         -0.110783         -2.448967
 ---------------------------------------------------------------------------------------------------
                         Z-Matrix orientation:                         
 ---------------------------------------------------------------------
 Center     Atomic      Atomic             Coordinates (Angstroms)
 Number     Number       Type             X           Y           Z
 ---------------------------------------------------------------------
      1         83           0        1.589962    1.632370   -0.585034
      2         83           0       -2.009950   -1.360502   -0.764003
      3         50           0        1.605330   -0.303094    2.133779
      4         50           0       -1.609076   -0.301550    2.130497
      5         32           0        0.000151    2.130406    1.781438
      6         32           0       -0.000453   -2.487967    0.997171
      7         83           0        2.011721   -1.359387   -0.761924
      8         83           0       -1.589720    1.632329   -0.584972
      9         32           0        0.000938   -0.110783   -2.448967
 ---------------------------------------------------------------------
                    Distance matrix (angstroms):
                    1          2          3          4          5
     1  Bi   0.000000
     2  Bi   4.684942   0.000000
     3  Sn   3.337394   4.752421   0.000000
     4  Sn   4.620390   3.108088   3.214408   0.000000
     5  Ge   2.894085   4.765104   2.936438   2.936982   0.000000
     6  Ge   4.691478   2.900171   2.940083   2.941516   4.684490
     7  Bi   3.026513   4.021672   3.109020   4.753450   4.763797
     8  Bi   3.179682   3.027488   4.620153   3.333772   2.894074
     9  Ge   3.006298   2.905955   4.859282   4.857986   4.787406
                    6          7          8          9
     6  Ge   0.000000
     7  Bi   2.901198   0.000000
     8  Bi   4.691032   4.685302   0.000000
     9  Ge   4.186511   2.906609   3.007176   0.000000
 Stoichiometry    Bi4Ge3Sn2
 Framework group  C1[X(Bi4Ge3Sn2)]
 Deg. of freedom    21
 Full point group                 C1      NOp   1
 Largest Abelian subgroup         C1      NOp   1
 Largest concise Abelian subgroup C1      NOp   1
                         Standard orientation:                         
 ---------------------------------------------------------------------
 Center     Atomic      Atomic             Coordinates (Angstroms)
 Number     Number       Type             X           Y           Z
 ---------------------------------------------------------------------
      1         83           0        1.589962    1.632370   -0.585034
      2         83           0       -2.009950   -1.360502   -0.764003
      3         50           0        1.605330   -0.303094    2.133779
      4         50           0       -1.609076   -0.301550    2.130497
      5         32           0        0.000151    2.130406    1.781438
      6         32           0       -0.000453   -2.487967    0.997171
      7         83           0        2.011721   -1.359387   -0.761924
      8         83           0       -1.589720    1.632329   -0.584972
      9         32           0        0.000938   -0.110783   -2.448967
 ---------------------------------------------------------------------
 Rotational constants (GHZ):      0.1029100      0.0908258      0.0834274
 Leave Link  202 at Tue Mar  6 11:57:55 2018, MaxMem=   536870912 cpu:         0.1
 (Enter /share/apps//mg09/l301.exe)
 Standard basis: def2TZVP (5D, 7F)
 Ernie: Thresh=  0.10000D-02 Tol=  0.10000D-05 Strict=F.
 There are   519 symmetry adapted cartesian basis functions of A   symmetry.
 There are   444 symmetry adapted basis functions of A   symmetry.
   444 basis functions,   963 primitive gaussians,   519 cartesian basis functions
   116 alpha electrons      116 beta electrons
       nuclear repulsion energy      3516.2283799014 Hartrees.
 IExCor= 1009 DFT=T Ex+Corr=PBE1PBE ExCW=0 ScaHFX=  0.250000
 ScaDFX=  0.750000  0.750000  1.000000  1.000000 ScalE2=  1.000000  1.000000
 IRadAn=      0 IRanWt=     -1 IRanGd=            0 ICorTp=0 IEmpDi=  4
 NAtoms=    9 NActive=    9 NUniq=    9 SFac= 1.00D+00 NAtFMM=   60 NAOKFM=F Big=F
 Integral buffers will be    131072 words long.
 Raffenetti 2 integral format.
 Two-electron integral symmetry is turned on.
 Leave Link  301 at Tue Mar  6 11:57:56 2018, MaxMem=   536870912 cpu:         0.8
 (Enter /share/apps//mg09/l302.exe)
 NPDir=0 NMtPBC=     1 NCelOv=     1 NCel=       1 NClECP=     1 NCelD=      1
         NCelK=      1 NCelE2=     1 NClLst=     1 CellRange=     0.0.
 One-electron integrals computed using PRISM.
   1 Symmetry operations used in ECPInt.
 ECPInt:  NShTT=   10440 NPrTT=   41973 LenC2=    9664 LenP2D=   27503.
 LDataN:  DoStor=T MaxTD1= 8 Len=  415
 NBasis=   444 RedAO= T EigKep=  1.52D-03  NBF=   444
 NBsUse=   444 1.00D-06 EigRej= -1.00D+00 NBFU=   444
 Precomputing XC quadrature grid using
 IXCGrd= 4 IRadAn=           0 IRanWt=          -1 IRanGd=           0 AccXCQ= 0.00D+00.
 Defaulting to unpruned grid for atomic number  83.
 Defaulting to unpruned grid for atomic number  83.
 Defaulting to unpruned grid for atomic number  50.
 Generated NRdTot=       0 NPtTot=           0 NUsed=           0 NTot=          32
 NSgBfM=   503   503   503   503   503 MxSgAt=     9 MxSgA2=     9.
 Leave Link  302 at Tue Mar  6 11:58:03 2018, MaxMem=   536870912 cpu:        29.4
 (Enter /share/apps//mg09/l303.exe)
 DipDrv:  MaxL=1.
 Leave Link  303 at Tue Mar  6 11:58:08 2018, MaxMem=   536870912 cpu:         0.7
 (Enter /share/apps//mg09/l401.exe)
 ExpMin= 4.62D-02 ExpMax= 4.66D+05 ExpMxC= 4.50D+03 IAcc=2 IRadAn=         4 AccDes= 0.00D+00
 Harris functional with IExCor= 1009 and IRadAn=       4 diagonalized for initial guess.
 HarFok:  IExCor= 1009 AccDes= 0.00D+00 IRadAn=         4 IDoV= 1 UseB2=F ITyADJ=14
 ICtDFT=  3500011 ScaDFX=  1.000000  1.000000  1.000000  1.000000
 Defaulting to unpruned grid for atomic number  83.
 Defaulting to unpruned grid for atomic number  83.
 Defaulting to unpruned grid for atomic number  83.
 Defaulting to unpruned grid for atomic number  83.
 FoFCou: FMM=F IPFlag=           0 FMFlag=      100000 FMFlg1=           0
         NFxFlg=           0 DoJE=T BraDBF=F KetDBF=T FulRan=T
         wScrn=  0.000000 ICntrl=     500 IOpCl=  0 I1Cent=   200000004 NGrid=           0
         NMat0=    1 NMatS0=      1 NMatT0=    0 NMatD0=    1 NMtDS0=    0 NMtDT0=    0
 Petite list used in FoFCou.
 Harris En= -7518.60380748569    
 JPrj=0 DoOrth=F DoCkMO=F.
 Leave Link  401 at Tue Mar  6 11:58:13 2018, MaxMem=   536870912 cpu:        20.6
 (Enter /share/apps//mg09/l502.exe)
 Closed shell SCF:
 Using DIIS extrapolation, IDIIS=  1040.
 Integral symmetry usage will be decided dynamically.
 IVT=     1410107 IEndB=     1410107 NGot=   536870912 MDV=   536322046
 LenX=   536322046 LenY=   536052166
 Requested convergence on RMS density matrix=1.00D-08 within 768 cycles.
 Requested convergence on MAX density matrix=1.00D-06.
 Requested convergence on             energy=1.00D-06.
 No special actions if energy rises.
 Fock matrices will be formed incrementally for  20 cycles.

 Cycle   1  Pass 1  IDiag  1:
 FoFJK:  IHMeth= 1 ICntrl=       0 DoSepK=F KAlg= 0 I1Cent=   0 FoldK=F
 IRaf= 880000000 NMat=   1 IRICut=       1 DoRegI=T DoRafI=F ISym2E= 0.
 FoFCou: FMM=F IPFlag=           0 FMFlag=      100000 FMFlg1=           0
         NFxFlg=           0 DoJE=F BraDBF=F KetDBF=F FulRan=T
         wScrn=  0.000000 ICntrl=       0 IOpCl=  0 I1Cent=           0 NGrid=           0
         NMat0=    1 NMatS0=      1 NMatT0=    0 NMatD0=    1 NMtDS0=    0 NMtDT0=    0
 Symmetry not used in FoFCou.
 Defaulting to unpruned grid for atomic number  83.
 Defaulting to unpruned grid for atomic number  83.
 Defaulting to unpruned grid for atomic number  83.
 Defaulting to unpruned grid for atomic number  83.
 E= -7517.25459716925    
 DIIS: error= 4.44D-02 at cycle   1 NSaved=   1.
 NSaved= 1 IEnMin= 1 EnMin= -7517.25459716925     IErMin= 1 ErrMin= 4.44D-02
 ErrMax= 4.44D-02  0.00D+00 EMaxC= 1.00D-01 BMatC= 1.45D+00 BMatP= 1.45D+00
 IDIUse=3 WtCom= 5.56D-01 WtEn= 4.44D-01
 Coeff-Com:  0.100D+01
 Coeff-En:   0.100D+01
 Coeff:      0.100D+01
 Gap=     0.168 Goal=   None    Shift=    0.000
 GapD=    0.168 DampG=1.000 DampE=0.500 DampFc=0.5000 IDamp=-1.
 Damping current iteration by 5.00D-01
 RMSDP=5.70D-03 MaxDP=2.28D-01              OVMax= 9.84D-01

 Cycle   2  Pass 1  IDiag  1:
 RMSU=  2.85D-03    CP:  1.00D+00
 E= -7517.02233222810     Delta-E=        0.232264941145 Rises=F Damp=T
 DIIS: error= 1.76D-02 at cycle   2 NSaved=   2.
 NSaved= 2 IEnMin= 1 EnMin= -7517.25459716925     IErMin= 2 ErrMin= 1.76D-02
 ErrMax= 1.76D-02  0.00D+00 EMaxC= 1.00D-01 BMatC= 2.85D-01 BMatP= 1.45D+00
 IDIUse=3 WtCom= 8.24D-01 WtEn= 1.76D-01
 Coeff-Com:  0.153D+00 0.847D+00
 Coeff-En:   0.627D+00 0.373D+00
 Coeff:      0.237D+00 0.763D+00
 Gap=    -0.224 Goal=   None    Shift=    0.000
 RMSDP=3.89D-03 MaxDP=1.98D-01 DE= 2.32D-01 OVMax= 7.85D-01

 Cycle   3  Pass 1  IDiag  1:
 RMSU=  3.11D-03    CP:  1.01D+00  1.77D-01
 E= -7515.87990608154     Delta-E=        1.142426146565 Rises=F Damp=F
 DIIS: error= 5.30D-02 at cycle   3 NSaved=   3.
 NSaved= 3 IEnMin= 1 EnMin= -7517.25459716925     IErMin= 2 ErrMin= 1.76D-02
 ErrMax= 5.30D-02  0.00D+00 EMaxC= 1.00D-01 BMatC= 1.45D+00 BMatP= 2.85D-01
 IDIUse=2 WtCom= 0.00D+00 WtEn= 1.00D+00
 EnCoef did    14 forward-backward iterations
 Coeff-En:   0.489D+00 0.421D+00 0.900D-01
 Coeff:      0.489D+00 0.421D+00 0.900D-01
 Gap=     0.196 Goal=   None    Shift=    0.000
 RMSDP=3.26D-03 MaxDP=1.40D-01 DE= 1.14D+00 OVMax= 3.91D-01

 Cycle   4  Pass 1  IDiag  1:
 RMSU=  1.66D-03    CP:  1.01D+00  7.59D-01  2.69D-01
 E= -7517.71306288247     Delta-E=       -1.833156800934 Rises=F Damp=F
 DIIS: error= 1.36D-02 at cycle   4 NSaved=   4.
 NSaved= 4 IEnMin= 4 EnMin= -7517.71306288247     IErMin= 4 ErrMin= 1.36D-02
 ErrMax= 1.36D-02  0.00D+00 EMaxC= 1.00D-01 BMatC= 2.26D-01 BMatP= 2.85D-01
 IDIUse=3 WtCom= 8.64D-01 WtEn= 1.36D-01
 Coeff-Com:  0.332D+00-0.161D+00-0.512D-01 0.880D+00
 Coeff-En:   0.110D+00 0.000D+00 0.000D+00 0.890D+00
 Coeff:      0.301D+00-0.139D+00-0.442D-01 0.881D+00
 Gap=     0.111 Goal=   None    Shift=    0.000
 RMSDP=1.19D-03 MaxDP=5.99D-02 DE=-1.83D+00 OVMax= 9.87D-02

 Cycle   5  Pass 1  IDiag  1:
 RMSU=  7.26D-04    CP:  1.00D+00  5.62D-01  7.72D-02  7.30D-01
 E= -7517.75393042995     Delta-E=       -0.040867547485 Rises=F Damp=F
 DIIS: error= 7.19D-03 at cycle   5 NSaved=   5.
 NSaved= 5 IEnMin= 5 EnMin= -7517.75393042995     IErMin= 5 ErrMin= 7.19D-03
 ErrMax= 7.19D-03  0.00D+00 EMaxC= 1.00D-01 BMatC= 5.44D-02 BMatP= 2.26D-01
 IDIUse=3 WtCom= 9.28D-01 WtEn= 7.19D-02
 Coeff-Com:  0.171D+00-0.147D+00-0.112D-01 0.544D+00 0.444D+00
 Coeff-En:   0.000D+00 0.000D+00 0.000D+00 0.335D+00 0.665D+00
 Coeff:      0.159D+00-0.137D+00-0.104D-01 0.529D+00 0.460D+00
 Gap=     0.128 Goal=   None    Shift=    0.000
 RMSDP=8.47D-04 MaxDP=4.65D-02 DE=-4.09D-02 OVMax= 1.11D-01

 Cycle   6  Pass 1  IDiag  1:
 RMSU=  4.55D-04    CP:  1.00D+00  5.35D-01  1.57D-01  7.52D-01  9.09D-02
 E= -7517.78815361099     Delta-E=       -0.034223181041 Rises=F Damp=F
 DIIS: error= 5.44D-03 at cycle   6 NSaved=   6.
 NSaved= 6 IEnMin= 6 EnMin= -7517.78815361099     IErMin= 6 ErrMin= 5.44D-03
 ErrMax= 5.44D-03  0.00D+00 EMaxC= 1.00D-01 BMatC= 1.95D-02 BMatP= 5.44D-02
 IDIUse=3 WtCom= 9.46D-01 WtEn= 5.44D-02
 Coeff-Com:  0.727D-01-0.910D-01 0.768D-02 0.272D+00 0.370D+00 0.369D+00
 Coeff-En:   0.000D+00 0.000D+00 0.000D+00 0.000D+00 0.322D+00 0.678D+00
 Coeff:      0.687D-01-0.861D-01 0.727D-02 0.257D+00 0.367D+00 0.385D+00
 Gap=     0.126 Goal=   None    Shift=    0.000
 RMSDP=4.79D-04 MaxDP=1.54D-02 DE=-3.42D-02 OVMax= 6.29D-02

 Cycle   7  Pass 1  IDiag  1:
 RMSU=  2.37D-04    CP:  1.00D+00  5.26D-01  1.61D-01  7.42D-01  4.53D-01
                    CP:  2.97D-01
 E= -7517.80662174857     Delta-E=       -0.018468137579 Rises=F Damp=F
 DIIS: error= 2.59D-03 at cycle   7 NSaved=   7.
 NSaved= 7 IEnMin= 7 EnMin= -7517.80662174857     IErMin= 7 ErrMin= 2.59D-03
 ErrMax= 2.59D-03  0.00D+00 EMaxC= 1.00D-01 BMatC= 4.61D-03 BMatP= 1.95D-02
 IDIUse=3 WtCom= 9.74D-01 WtEn= 2.59D-02
 Coeff-Com:  0.321D-01-0.582D-01 0.614D-02 0.127D+00 0.209D+00 0.318D+00
 Coeff-Com:  0.366D+00
 Coeff-En:   0.000D+00 0.000D+00 0.000D+00 0.000D+00 0.000D+00 0.251D+00
 Coeff-En:   0.749D+00
 Coeff:      0.313D-01-0.567D-01 0.599D-02 0.124D+00 0.203D+00 0.317D+00
 Coeff:      0.376D+00
 Gap=     0.123 Goal=   None    Shift=    0.000
 RMSDP=1.88D-04 MaxDP=8.81D-03 DE=-1.85D-02 OVMax= 2.21D-02

 Cycle   8  Pass 1  IDiag  1:
 RMSU=  6.60D-05    CP:  1.00D+00  5.30D-01  1.59D-01  7.39D-01  4.11D-01
                    CP:  4.76D-01  3.65D-01
 E= -7517.81173799856     Delta-E=       -0.005116249984 Rises=F Damp=F
 DIIS: error= 7.42D-04 at cycle   8 NSaved=   8.
 NSaved= 8 IEnMin= 8 EnMin= -7517.81173799856     IErMin= 8 ErrMin= 7.42D-04
 ErrMax= 7.42D-04  0.00D+00 EMaxC= 1.00D-01 BMatC= 4.36D-04 BMatP= 4.61D-03
 IDIUse=3 WtCom= 9.93D-01 WtEn= 7.42D-03
 Coeff-Com:  0.114D-01-0.228D-01 0.610D-02 0.386D-01 0.589D-01 0.140D+00
 Coeff-Com:  0.246D+00 0.523D+00
 Coeff-En:   0.000D+00 0.000D+00 0.000D+00 0.000D+00 0.000D+00 0.000D+00
 Coeff-En:   0.465D-01 0.954D+00
 Coeff:      0.113D-01-0.226D-01 0.605D-02 0.384D-01 0.584D-01 0.139D+00
 Coeff:      0.244D+00 0.526D+00
 Gap=     0.123 Goal=   None    Shift=    0.000
 RMSDP=5.09D-05 MaxDP=2.63D-03 DE=-5.12D-03 OVMax= 5.91D-03

 Cycle   9  Pass 1  IDiag  1:
 RMSU=  2.46D-05    CP:  1.00D+00  5.29D-01  1.69D-01  7.40D-01  3.99D-01
                    CP:  4.60D-01  4.81D-01  8.12D-01
 E= -7517.81222158594     Delta-E=       -0.000483587377 Rises=F Damp=F
 DIIS: error= 1.31D-04 at cycle   9 NSaved=   9.
 NSaved= 9 IEnMin= 9 EnMin= -7517.81222158594     IErMin= 9 ErrMin= 1.31D-04
 ErrMax= 1.31D-04  0.00D+00 EMaxC= 1.00D-01 BMatC= 2.73D-05 BMatP= 4.36D-04
 IDIUse=3 WtCom= 9.99D-01 WtEn= 1.31D-03
 Coeff-Com:  0.243D-02-0.541D-02 0.208D-03 0.813D-03-0.173D-01 0.304D-02
 Coeff-Com:  0.382D-01 0.235D+00 0.743D+00
 Coeff-En:   0.000D+00 0.000D+00 0.000D+00 0.000D+00 0.000D+00 0.000D+00
 Coeff-En:   0.000D+00 0.000D+00 0.100D+01
 Coeff:      0.242D-02-0.540D-02 0.207D-03 0.812D-03-0.173D-01 0.303D-02
 Coeff:      0.381D-01 0.235D+00 0.743D+00
 Gap=     0.123 Goal=   None    Shift=    0.000
 RMSDP=1.78D-05 MaxDP=1.12D-03 DE=-4.84D-04 OVMax= 2.10D-03

 Cycle  10  Pass 1  IDiag  1:
 RMSU=  1.18D-05    CP:  1.00D+00  5.27D-01  1.68D-01  7.38D-01  3.90D-01
                    CP:  4.66D-01  4.97D-01  8.73D-01  7.29D-01
 E= -7517.81224216159     Delta-E=       -0.000020575651 Rises=F Damp=F
 DIIS: error= 1.10D-04 at cycle  10 NSaved=  10.
 NSaved=10 IEnMin=10 EnMin= -7517.81224216159     IErMin=10 ErrMin= 1.10D-04
 ErrMax= 1.10D-04  0.00D+00 EMaxC= 1.00D-01 BMatC= 7.69D-06 BMatP= 2.73D-05
 IDIUse=3 WtCom= 9.99D-01 WtEn= 1.10D-03
 Coeff-Com:  0.557D-03-0.135D-02 0.212D-03-0.283D-02-0.151D-01-0.105D-01
 Coeff-Com: -0.187D-02 0.940D-01 0.472D+00 0.465D+00
 Coeff-En:   0.000D+00 0.000D+00 0.000D+00 0.000D+00 0.000D+00 0.000D+00
 Coeff-En:   0.000D+00 0.000D+00 0.135D+00 0.865D+00
 Coeff:      0.556D-03-0.135D-02 0.212D-03-0.283D-02-0.151D-01-0.105D-01
 Coeff:     -0.187D-02 0.939D-01 0.472D+00 0.465D+00
 Gap=     0.122 Goal=   None    Shift=    0.000
 RMSDP=6.95D-06 MaxDP=3.98D-04 DE=-2.06D-05 OVMax= 8.51D-04

 Cycle  11  Pass 1  IDiag  1:
 RMSU=  2.98D-06    CP:  1.00D+00  5.26D-01  1.69D-01  7.38D-01  3.90D-01
                    CP:  4.68D-01  4.93D-01  8.82D-01  8.45D-01  6.01D-01
 E= -7517.81225125058     Delta-E=       -0.000009088993 Rises=F Damp=F
 DIIS: error= 1.75D-05 at cycle  11 NSaved=  11.
 NSaved=11 IEnMin=11 EnMin= -7517.81225125058     IErMin=11 ErrMin= 1.75D-05
 ErrMax= 1.75D-05  0.00D+00 EMaxC= 1.00D-01 BMatC= 3.79D-07 BMatP= 7.69D-06
 IDIUse=1 WtCom= 1.00D+00 WtEn= 0.00D+00
 Coeff-Com:  0.970D-04-0.230D-03 0.133D-03-0.163D-02-0.662D-02-0.718D-02
 Coeff-Com: -0.669D-02 0.256D-01 0.175D+00 0.216D+00 0.605D+00
 Coeff:      0.970D-04-0.230D-03 0.133D-03-0.163D-02-0.662D-02-0.718D-02
 Coeff:     -0.669D-02 0.256D-01 0.175D+00 0.216D+00 0.605D+00
 Gap=     0.122 Goal=   None    Shift=    0.000
 RMSDP=2.02D-06 MaxDP=1.05D-04 DE=-9.09D-06 OVMax= 2.14D-04

 Cycle  12  Pass 1  IDiag  1:
 RMSU=  1.34D-06    CP:  1.00D+00  5.26D-01  1.69D-01  7.37D-01  3.90D-01
                    CP:  4.67D-01  4.93D-01  8.93D-01  8.64D-01  6.30D-01
                    CP:  8.20D-01
 E= -7517.81225160836     Delta-E=       -0.000000357782 Rises=F Damp=F
 DIIS: error= 7.44D-06 at cycle  12 NSaved=  12.
 NSaved=12 IEnMin=12 EnMin= -7517.81225160836     IErMin=12 ErrMin= 7.44D-06
 ErrMax= 7.44D-06  0.00D+00 EMaxC= 1.00D-01 BMatC= 6.72D-08 BMatP= 3.79D-07
 IDIUse=1 WtCom= 1.00D+00 WtEn= 0.00D+00
 Coeff-Com:  0.536D-04-0.108D-03 0.325D-04-0.478D-03-0.209D-02-0.308D-02
 Coeff-Com: -0.383D-02 0.388D-02 0.485D-01 0.772D-01 0.367D+00 0.513D+00
 Coeff:      0.536D-04-0.108D-03 0.325D-04-0.478D-03-0.209D-02-0.308D-02
 Coeff:     -0.383D-02 0.388D-02 0.485D-01 0.772D-01 0.367D+00 0.513D+00
 Gap=     0.122 Goal=   None    Shift=    0.000
 RMSDP=1.17D-06 MaxDP=6.27D-05 DE=-3.58D-07 OVMax= 1.43D-04

 Cycle  13  Pass 1  IDiag  1:
 RMSU=  7.98D-07    CP:  1.00D+00  5.26D-01  1.69D-01  7.37D-01  3.90D-01
                    CP:  4.67D-01  4.92D-01  8.94D-01  8.66D-01  6.25D-01
                    CP:  9.34D-01  4.38D-01
 E= -7517.81225162874     Delta-E=       -0.000000020382 Rises=F Damp=F
 DIIS: error= 7.80D-06 at cycle  13 NSaved=  13.
 NSaved=13 IEnMin=13 EnMin= -7517.81225162874     IErMin=12 ErrMin= 7.44D-06
 ErrMax= 7.80D-06  0.00D+00 EMaxC= 1.00D-01 BMatC= 4.25D-08 BMatP= 6.72D-08
 IDIUse=1 WtCom= 1.00D+00 WtEn= 0.00D+00
 Coeff-Com:  0.246D-04-0.375D-04-0.297D-05-0.827D-05-0.191D-03-0.891D-03
 Coeff-Com: -0.154D-02-0.312D-02-0.203D-02 0.137D-01 0.157D+00 0.448D+00
 Coeff-Com:  0.389D+00
 Coeff:      0.246D-04-0.375D-04-0.297D-05-0.827D-05-0.191D-03-0.891D-03
 Coeff:     -0.154D-02-0.312D-02-0.203D-02 0.137D-01 0.157D+00 0.448D+00
 Coeff:      0.389D+00
 Gap=     0.122 Goal=   None    Shift=    0.000
 RMSDP=6.64D-07 MaxDP=2.82D-05 DE=-2.04D-08 OVMax= 8.35D-05

 Cycle  14  Pass 1  IDiag  1:
 RMSU=  2.91D-07    CP:  1.00D+00  5.26D-01  1.69D-01  7.37D-01  3.90D-01
                    CP:  4.67D-01  4.93D-01  8.94D-01  8.66D-01  6.31D-01
                    CP:  9.28D-01  6.96D-01  4.09D-01
 E= -7517.81225168541     Delta-E=       -0.000000056667 Rises=F Damp=F
 DIIS: error= 1.60D-06 at cycle  14 NSaved=  14.
 NSaved=14 IEnMin=14 EnMin= -7517.81225168541     IErMin=14 ErrMin= 1.60D-06
 ErrMax= 1.60D-06  0.00D+00 EMaxC= 1.00D-01 BMatC= 3.61D-09 BMatP= 4.25D-08
 IDIUse=1 WtCom= 1.00D+00 WtEn= 0.00D+00
 Coeff-Com:  0.241D-05 0.578D-05-0.174D-05 0.221D-04 0.788D-04-0.207D-03
 Coeff-Com: -0.373D-03-0.229D-02-0.642D-02-0.104D-02 0.427D-01 0.229D+00
 Coeff-Com:  0.270D+00 0.468D+00
 Coeff:      0.241D-05 0.578D-05-0.174D-05 0.221D-04 0.788D-04-0.207D-03
 Coeff:     -0.373D-03-0.229D-02-0.642D-02-0.104D-02 0.427D-01 0.229D+00
 Coeff:      0.270D+00 0.468D+00
 Gap=     0.122 Goal=   None    Shift=    0.000
 RMSDP=1.95D-07 MaxDP=1.30D-05 DE=-5.67D-08 OVMax= 2.40D-05

 Cycle  15  Pass 1  IDiag  1:
 RMSU=  8.96D-08    CP:  1.00D+00  5.26D-01  1.69D-01  7.37D-01  3.90D-01
                    CP:  4.67D-01  4.93D-01  8.94D-01  8.66D-01  6.37D-01
                    CP:  9.35D-01  7.04D-01  5.21D-01  6.43D-01
 E= -7517.81225169004     Delta-E=       -0.000000004629 Rises=F Damp=F
 DIIS: error= 4.18D-07 at cycle  15 NSaved=  15.
 NSaved=15 IEnMin=15 EnMin= -7517.81225169004     IErMin=15 ErrMin= 4.18D-07
 ErrMax= 4.18D-07  0.00D+00 EMaxC= 1.00D-01 BMatC= 1.48D-10 BMatP= 3.61D-09
 IDIUse=1 WtCom= 1.00D+00 WtEn= 0.00D+00
 Coeff-Com: -0.232D-05 0.682D-05-0.225D-05 0.168D-04 0.882D-04 0.549D-04
 Coeff-Com:  0.677D-04-0.722D-03-0.260D-02-0.279D-02-0.310D-02 0.431D-01
 Coeff-Com:  0.690D-01 0.207D+00 0.690D+00
 Coeff:     -0.232D-05 0.682D-05-0.225D-05 0.168D-04 0.882D-04 0.549D-04
 Coeff:      0.677D-04-0.722D-03-0.260D-02-0.279D-02-0.310D-02 0.431D-01
 Coeff:      0.690D-01 0.207D+00 0.690D+00
 Gap=     0.122 Goal=   None    Shift=    0.000
 RMSDP=5.06D-08 MaxDP=2.86D-06 DE=-4.63D-09 OVMax= 6.96D-06

 Cycle  16  Pass 1  IDiag  1:
 RMSU=  2.78D-08    CP:  1.00D+00  5.26D-01  1.69D-01  7.37D-01  3.90D-01
                    CP:  4.67D-01  4.93D-01  8.94D-01  8.66D-01  6.36D-01
                    CP:  9.40D-01  7.11D-01  5.27D-01  7.14D-01  8.06D-01
 E= -7517.81225169016     Delta-E=       -0.000000000118 Rises=F Damp=F
 DIIS: error= 2.08D-07 at cycle  16 NSaved=  16.
 NSaved=16 IEnMin=16 EnMin= -7517.81225169016     IErMin=16 ErrMin= 2.08D-07
 ErrMax= 2.08D-07  0.00D+00 EMaxC= 1.00D-01 BMatC= 2.30D-11 BMatP= 1.48D-10
 IDIUse=1 WtCom= 1.00D+00 WtEn= 0.00D+00
 Coeff-Com: -0.170D-05 0.367D-05-0.525D-06 0.628D-05 0.363D-04 0.461D-04
 Coeff-Com:  0.631D-04-0.735D-04-0.627D-03-0.837D-03-0.441D-02 0.628D-03
 Coeff-Com:  0.811D-02 0.485D-01 0.288D+00 0.660D+00
 Coeff:     -0.170D-05 0.367D-05-0.525D-06 0.628D-05 0.363D-04 0.461D-04
 Coeff:      0.631D-04-0.735D-04-0.627D-03-0.837D-03-0.441D-02 0.628D-03
 Coeff:      0.811D-02 0.485D-01 0.288D+00 0.660D+00
 Gap=     0.122 Goal=   None    Shift=    0.000
 RMSDP=1.94D-08 MaxDP=1.23D-06 DE=-1.18D-10 OVMax= 2.76D-06

 Cycle  17  Pass 1  IDiag  1:
 RMSU=  9.43D-09    CP:  1.00D+00  5.26D-01  1.69D-01  7.37D-01  3.90D-01
                    CP:  4.67D-01  4.93D-01  8.94D-01  8.66D-01  6.36D-01
                    CP:  9.41D-01  7.14D-01  5.31D-01  7.19D-01  8.94D-01
                    CP:  8.70D-01
 E= -7517.81225168996     Delta-E=        0.000000000198 Rises=F Damp=F
 DIIS: error= 4.40D-08 at cycle  17 NSaved=  17.
 NSaved=17 IEnMin=16 EnMin= -7517.81225169016     IErMin=17 ErrMin= 4.40D-08
 ErrMax= 4.40D-08  0.00D+00 EMaxC= 1.00D-01 BMatC= 3.20D-12 BMatP= 2.30D-11
 IDIUse=1 WtCom= 1.00D+00 WtEn= 0.00D+00
 Coeff-Com: -0.808D-06 0.153D-05-0.111D-06 0.462D-06 0.674D-05 0.173D-04
 Coeff-Com:  0.286D-04 0.682D-04 0.404D-04-0.303D-04-0.195D-02-0.572D-02
 Coeff-Com: -0.495D-02-0.522D-03 0.633D-01 0.361D+00 0.589D+00
 Coeff:     -0.808D-06 0.153D-05-0.111D-06 0.462D-06 0.674D-05 0.173D-04
 Coeff:      0.286D-04 0.682D-04 0.404D-04-0.303D-04-0.195D-02-0.572D-02
 Coeff:     -0.495D-02-0.522D-03 0.633D-01 0.361D+00 0.589D+00
 Gap=     0.122 Goal=   None    Shift=    0.000
 RMSDP=5.81D-09 MaxDP=3.07D-07 DE= 1.98D-10 OVMax= 7.09D-07

 SCF Done:  E(RPBE1PBE) =  -7517.81225169     A.U. after   17 cycles
            NFock= 17  Conv=0.58D-08     -V/T= 2.1285
 KE= 6.661995627635D+03 PE=-2.462379500659D+04 EE= 6.927758747366D+03
 Leave Link  502 at Tue Mar  6 12:21:43 2018, MaxMem=   536870912 cpu:      5632.9
 (Enter /share/apps//mg09/l601.exe)
 Copying SCF densities to generalized density rwf, IOpCl= 0 IROHF=0.

 **********************************************************************

            Population analysis using the SCF density.

 **********************************************************************

 Orbital symmetries:
       Occupied  (A) (A) (A) (A) (A) (A) (A) (A) (A) (A) (A) (A)
                 (A) (A) (A) (A) (A) (A) (A) (A) (A) (A) (A) (A)
                 (A) (A) (A) (A) (A) (A) (A) (A) (A) (A) (A) (A)
                 (A) (A) (A) (A) (A) (A) (A) (A) (A) (A) (A) (A)
                 (A) (A) (A) (A) (A) (A) (A) (A) (A) (A) (A) (A)
                 (A) (A) (A) (A) (A) (A) (A) (A) (A) (A) (A) (A)
                 (A) (A) (A) (A) (A) (A) (A) (A) (A) (A) (A) (A)
                 (A) (A) (A) (A) (A) (A) (A) (A) (A) (A) (A) (A)
                 (A) (A) (A) (A) (A) (A) (A) (A) (A) (A) (A) (A)
                 (A) (A) (A) (A) (A) (A) (A) (A)
       Virtual   (A) (A) (A) (A) (A) (A) (A) (A) (A) (A) (A) (A)
                 (A) (A) (A) (A) (A) (A) (A) (A) (A) (A) (A) (A)
                 (A) (A) (A) (A) (A) (A) (A) (A) (A) (A) (A) (A)
                 (A) (A) (A) (A) (A) (A) (A) (A) (A) (A) (A) (A)
                 (A) (A) (A) (A) (A) (A) (A) (A) (A) (A) (A) (A)
                 (A) (A) (A) (A) (A) (A) (A) (A) (A) (A) (A) (A)
                 (A) (A) (A) (A) (A) (A) (A) (A) (A) (A) (A) (A)
                 (A) (A) (A) (A) (A) (A) (A) (A) (A) (A) (A) (A)
                 (A) (A) (A) (A) (A) (A) (A) (A) (A) (A) (A) (A)
                 (A) (A) (A) (A) (A) (A) (A) (A) (A) (A) (A) (A)
                 (A) (A) (A) (A) (A) (A) (A) (A) (A) (A) (A) (A)
                 (A) (A) (A) (A) (A) (A) (A) (A) (A) (A) (A) (A)
                 (A) (A) (A) (A) (A) (A) (A) (A) (A) (A) (A) (A)
                 (A) (A) (A) (A) (A) (A) (A) (A) (A) (A) (A) (A)
                 (A) (A) (A) (A) (A) (A) (A) (A) (A) (A) (A) (A)
                 (A) (A) (A) (A) (A) (A) (A) (A) (A) (A) (A) (A)
                 (A) (A) (A) (A) (A) (A) (A) (A) (A) (A) (A) (A)
                 (A) (A) (A) (A) (A) (A) (A) (A) (A) (A) (A) (A)
                 (A) (A) (A) (A) (A) (A) (A) (A) (A) (A) (A) (A)
                 (A) (A) (A) (A) (A) (A) (A) (A) (A) (A) (A) (A)
                 (A) (A) (A) (A) (A) (A) (A) (A) (A) (A) (A) (A)
                 (A) (A) (A) (A) (A) (A) (A) (A) (A) (A) (A) (A)
                 (A) (A) (A) (A) (A) (A) (A) (A) (A) (A) (A) (A)
                 (A) (A) (A) (A) (A) (A) (A) (A) (A) (A) (A) (A)
                 (A) (A) (A) (A) (A) (A) (A) (A) (A) (A) (A) (A)
                 (A) (A) (A) (A) (A) (A) (A) (A) (A) (A) (A) (A)
                 (A) (A) (A) (A) (A) (A) (A) (A) (A) (A) (A) (A)
                 (A) (A) (A) (A)
 The electronic state is 1-A.
 Alpha  occ. eigenvalues -- -399.10097-399.09488-399.08745 -49.91677 -49.91097
 Alpha  occ. eigenvalues --  -49.90345 -44.39761 -44.39733 -44.39698 -44.39170
 Alpha  occ. eigenvalues --  -44.39168 -44.39107 -44.38423 -44.38398 -44.38374
 Alpha  occ. eigenvalues --   -6.28179  -6.27606  -6.26852  -6.02782  -6.02780
 Alpha  occ. eigenvalues --   -6.01195  -6.01191  -5.13353  -5.13352  -4.43628
 Alpha  occ. eigenvalues --   -4.43545  -4.43414  -4.43033  -4.43032  -4.42817
 Alpha  occ. eigenvalues --   -4.42300  -4.42203  -4.42124  -3.75049  -3.75042
 Alpha  occ. eigenvalues --   -3.74941  -3.74939  -3.74782  -3.74779  -3.73501
 Alpha  occ. eigenvalues --   -3.73497  -3.73346  -3.73342  -3.73147  -3.73144
 Alpha  occ. eigenvalues --   -3.46642  -3.46641  -3.46465  -3.46463  -3.46305
 Alpha  occ. eigenvalues --   -3.46299  -1.23086  -1.23082  -1.22943  -1.22915
 Alpha  occ. eigenvalues --   -1.22861  -1.22551  -1.22527  -1.22356  -1.22341
 Alpha  occ. eigenvalues --   -1.22290  -1.21752  -1.21727  -1.21668  -1.21577
 Alpha  occ. eigenvalues --   -1.21556  -1.09100  -1.08830  -1.08748  -1.08659
 Alpha  occ. eigenvalues --   -1.08584  -1.08574  -1.08463  -1.08430  -1.08333
 Alpha  occ. eigenvalues --   -1.08245  -1.07133  -1.07123  -1.07059  -1.07033
 Alpha  occ. eigenvalues --   -1.06938  -1.06893  -1.06805  -1.06773  -1.06771
 Alpha  occ. eigenvalues --   -1.06694  -1.02866  -1.02826  -1.02805  -1.02793
 Alpha  occ. eigenvalues --   -1.02773  -1.02619  -1.02562  -1.02535  -1.02449
 Alpha  occ. eigenvalues --   -1.02309  -0.67247  -0.62095  -0.59933  -0.54973
 Alpha  occ. eigenvalues --   -0.53023  -0.45670  -0.45141  -0.41825  -0.40517
 Alpha  occ. eigenvalues --   -0.29065  -0.27817  -0.27092  -0.25470  -0.25329
 Alpha  occ. eigenvalues --   -0.24584  -0.23629  -0.22024  -0.21418  -0.21055
 Alpha  occ. eigenvalues --   -0.20253
 Alpha virt. eigenvalues --   -0.08010  -0.07288  -0.06719  -0.06522  -0.06127
 Alpha virt. eigenvalues --   -0.06025  -0.05557  -0.04963  -0.04762  -0.03446
 Alpha virt. eigenvalues --   -0.03249  -0.02111  -0.00701   0.04136   0.04880
 Alpha virt. eigenvalues --    0.05143   0.06400   0.08266   0.08524   0.08774
 Alpha virt. eigenvalues --    0.09206   0.09364   0.09724   0.09726   0.10600
 Alpha virt. eigenvalues --    0.11086   0.11544   0.11592   0.11917   0.12227
 Alpha virt. eigenvalues --    0.14058   0.15606   0.15917   0.16374   0.16917
 Alpha virt. eigenvalues --    0.17610   0.17995   0.19641   0.20402   0.20886
 Alpha virt. eigenvalues --    0.21121   0.21623   0.21936   0.23353   0.23485
 Alpha virt. eigenvalues --    0.25943   0.27837   0.28225   0.28314   0.28729
 Alpha virt. eigenvalues --    0.29829   0.29928   0.30496   0.30630   0.30917
 Alpha virt. eigenvalues --    0.31286   0.31597   0.31772   0.32685   0.33301
 Alpha virt. eigenvalues --    0.33306   0.35223   0.36695   0.36700   0.37928
 Alpha virt. eigenvalues --    0.38735   0.39017   0.40217   0.41840   0.42162
 Alpha virt. eigenvalues --    0.42728   0.43067   0.43372   0.43785   0.44984
 Alpha virt. eigenvalues --    0.45755   0.46225   0.47308   0.47482   0.47594
 Alpha virt. eigenvalues --    0.48805   0.50071   0.50207   0.50958   0.51164
 Alpha virt. eigenvalues --    0.52961   0.53106   0.53206   0.54621   0.54826
 Alpha virt. eigenvalues --    0.55532   0.56900   0.57276   0.57568   0.58792
 Alpha virt. eigenvalues --    0.59504   0.61323   0.61763   0.62130   0.62239
 Alpha virt. eigenvalues --    0.62884   0.63800   0.64711   0.64950   0.66155
 Alpha virt. eigenvalues --    0.66874   0.67326   0.67523   0.69162   0.70430
 Alpha virt. eigenvalues --    0.70596   0.71971   0.72118   0.73185   0.73471
 Alpha virt. eigenvalues --    0.74607   0.75429   0.75755   0.78212   0.78553
 Alpha virt. eigenvalues --    0.79183   0.79776   0.80415   0.80807   0.81941
 Alpha virt. eigenvalues --    0.82234   0.84545   0.84824   0.84995   0.86550
 Alpha virt. eigenvalues --    0.87945   0.88290   0.88833   0.89809   0.89982
 Alpha virt. eigenvalues --    0.90228   0.90568   0.91435   0.92301   0.93677
 Alpha virt. eigenvalues --    0.95043   0.95409   0.95437   0.95662   0.97342
 Alpha virt. eigenvalues --    0.97645   0.97974   0.98825   0.99913   1.00617
 Alpha virt. eigenvalues --    1.00778   1.03748   1.05883   1.07925   1.09285
 Alpha virt. eigenvalues --    1.09782   1.11208   1.11562   1.11891   1.12336
 Alpha virt. eigenvalues --    1.13015   1.13189   1.15589   1.16801   1.17638
 Alpha virt. eigenvalues --    1.18579   1.18698   1.20000   1.20083   1.20316
 Alpha virt. eigenvalues --    1.20956   1.21536   1.22079   1.22458   1.22686
 Alpha virt. eigenvalues --    1.23324   1.23416   1.23474   1.24108   1.24534
 Alpha virt. eigenvalues --    1.24895   1.25209   1.25435   1.26802   1.26890
 Alpha virt. eigenvalues --    1.27118   1.27480   1.28290   1.28329   1.29094
 Alpha virt. eigenvalues --    1.29413   1.29686   1.30808   1.32142   1.33491
 Alpha virt. eigenvalues --    1.34295   1.37670   1.37875   1.38500   1.39968
 Alpha virt. eigenvalues --    1.40930   1.41356   1.42178   1.43453   1.45050
 Alpha virt. eigenvalues --    1.45255   1.46428   1.46679   1.47760   1.48917
 Alpha virt. eigenvalues --    1.49208   1.50092   1.50103   1.51136   1.51605
 Alpha virt. eigenvalues --    1.52072   1.53180   1.53752   1.54659   1.56487
 Alpha virt. eigenvalues --    1.64444   1.70318   1.73877   2.06379   2.08093
 Alpha virt. eigenvalues --    2.08573   2.10760   2.13360   2.14563   2.16914
 Alpha virt. eigenvalues --    2.17135   2.19125   2.19296   2.20396   2.21797
 Alpha virt. eigenvalues --    2.21966   2.23339   2.23535   2.24930   2.26744
 Alpha virt. eigenvalues --    2.27357   2.27514   2.30334   2.31143   2.32940
 Alpha virt. eigenvalues --    2.33444   2.34782   2.35917   2.37736   2.38053
 Alpha virt. eigenvalues --    2.40917   2.42094   2.43179   2.44489   2.47927
 Alpha virt. eigenvalues --    2.50142   2.50303   2.50455   2.52249   2.54212
 Alpha virt. eigenvalues --    2.55145   2.58906   2.61603   2.63386   2.65727
 Alpha virt. eigenvalues --    2.69689   2.70220   2.71411   2.74036   2.76672
 Alpha virt. eigenvalues --    2.77352   2.78372   2.78563   2.79357   2.80041
 Alpha virt. eigenvalues --    2.81762   2.82855   2.84912   2.87351   2.89932
 Alpha virt. eigenvalues --    3.18943   3.27454   3.30800   3.33520   3.40179
 Alpha virt. eigenvalues --    3.46326   3.94076   3.95945   4.00250   4.01365
 Alpha virt. eigenvalues --    4.02208   4.02832   4.04177   4.06238   4.06420
 Alpha virt. eigenvalues --    5.26632   5.34383   5.36301  35.39005  35.40940
 Alpha virt. eigenvalues --   35.41696  35.43285  35.45561  35.47385  35.48556
 Alpha virt. eigenvalues --   35.50983  35.53614  35.56357  35.58373  35.65045
 Alpha virt. eigenvalues --   35.85291  35.92275  35.98154  36.12806  36.19727
 Alpha virt. eigenvalues --   36.23349  36.96340  36.99458  37.01187  37.03247
 Alpha virt. eigenvalues --   37.10796  37.24000 113.57338 113.60071 120.21285
 Alpha virt. eigenvalues --  120.23492 120.24323 120.26292
          Condensed to atoms (all electrons):
               1          2          3          4          5          6
     1  Bi  22.271314  -0.029912   0.073064  -0.023993   0.168856  -0.018644
     2  Bi  -0.029912  22.351273  -0.018079   0.127036  -0.016356   0.188329
     3  Sn   0.073064  -0.018079  21.361067   0.097385   0.153980   0.147570
     4  Sn  -0.023993   0.127036   0.097385  21.361497   0.153688   0.147176
     5  Ge   0.168856  -0.016356   0.153980   0.153688  31.644394  -0.009221
     6  Ge  -0.018644   0.188329   0.147570   0.147176  -0.009221  31.587607
     7  Bi   0.177318  -0.021755   0.127071  -0.018014  -0.016363   0.188175
     8  Bi   0.118585   0.177047  -0.024009   0.073573   0.168698  -0.018646
     9  Ge   0.122563   0.178218  -0.014764  -0.014768  -0.012482  -0.011957
               7          8          9
     1  Bi   0.177318   0.118585   0.122563
     2  Bi  -0.021755   0.177047   0.178218
     3  Sn   0.127071  -0.024009  -0.014764
     4  Sn  -0.018014   0.073573  -0.014768
     5  Ge  -0.016363   0.168698  -0.012482
     6  Ge   0.188175  -0.018646  -0.011957
     7  Bi  22.351447  -0.029888   0.178088
     8  Bi  -0.029888  22.271437   0.122406
     9  Ge   0.178088   0.122406  31.620020
 Mulliken charges:
               1
     1  Bi   0.140850
     2  Bi   0.064200
     3  Sn   0.096715
     4  Sn   0.096421
     5  Ge  -0.235193
     6  Ge  -0.200387
     7  Bi   0.063920
     8  Bi   0.140797
     9  Ge  -0.167323
 Sum of Mulliken charges =   0.00000
 Mulliken charges with hydrogens summed into heavy atoms:
               1
     1  Bi   0.140850
     2  Bi   0.064200
     3  Sn   0.096715
     4  Sn   0.096421
     5  Ge  -0.235193
     6  Ge  -0.200387
     7  Bi   0.063920
     8  Bi   0.140797
     9  Ge  -0.167323
 Electronic spatial extent (au):  <R**2>=           5983.3105
 Charge=              0.0000 electrons
 Dipole moment (field-independent basis, Debye):
    X=             -0.0011    Y=              0.8490    Z=             -0.7980  Tot=              1.1652
 Quadrupole moment (field-independent basis, Debye-Ang):
   XX=           -215.2085   YY=           -219.0769   ZZ=           -220.6966
   XY=              0.0014   XZ=              0.0000   YZ=              0.2504
 Traceless Quadrupole moment (field-independent basis, Debye-Ang):
   XX=              3.1188   YY=             -0.7496   ZZ=             -2.3693
   XY=              0.0014   XZ=              0.0000   YZ=              0.2504
 Octapole moment (field-independent basis, Debye-Ang**2):
  XXX=              0.0848  YYY=             27.9871  ZZZ=            -86.9256  XYY=              0.0253
  XXY=             11.3711  XXZ=            -40.0092  XZZ=              0.0063  YZZ=              2.2435
  YYZ=            -47.9251  XYZ=              0.0037
 Hexadecapole moment (field-independent basis, Debye-Ang**3):
 XXXX=          -3433.5356 YYYY=          -3120.8321 ZZZZ=          -3093.5291 XXXY=             -0.0441
 XXXZ=              0.0231 YYYX=              0.0353 YYYZ=             -1.9215 ZZZX=              0.1061
 ZZZY=             10.1357 XXYY=          -1037.3796 XXZZ=          -1088.6629 YYZZ=          -1043.9293
 XXYZ=              1.7924 YYXZ=              0.0756 ZZXY=              0.0294
 N-N= 3.516228379901D+03 E-N=-2.462379497389D+04  KE= 6.661995627635D+03
 No NMR shielding tensors so no spin-rotation constants.
 Leave Link  601 at Tue Mar  6 12:21:44 2018, MaxMem=   536870912 cpu:         1.8
 (Enter /share/apps//mg09/l701.exe)
 Compute integral first derivatives.
 ... and contract with generalized density number  0.
   1 Symmetry operations used in ECPInt.
 ECPInt:  NShTT=   10440 NPrTT=   41973 LenC2=    9664 LenP2D=   27503.
 LDataN:  DoStor=T MaxTD1= 9 Len=  602
 Leave Link  701 at Tue Mar  6 12:22:22 2018, MaxMem=   536870912 cpu:       134.7
 (Enter /share/apps//mg09/l702.exe)
 L702 exits ... SP integral derivatives will be done elsewhere.
 Leave Link  702 at Tue Mar  6 12:22:22 2018, MaxMem=   536870912 cpu:         0.3
 (Enter /share/apps//mg09/l703.exe)
 Compute integral first derivatives, UseDBF=F ICtDFT=           0.
 Integral derivatives from FoFJK, PRISM(SPDF).
 Calling FoFJK, ICntrl=      2127 FMM=F ISym2X=0 I1Cent= 0 IOpClX= 0 NMat=1 NMatS=1 NMatT=0.
 FoFJK:  IHMeth= 1 ICntrl=    2127 DoSepK=F KAlg= 0 I1Cent=   0 FoldK=F
 IRaf=         0 NMat=   1 IRICut=       1 DoRegI=T DoRafI=F ISym2E= 0.
 FoFCou: FMM=F IPFlag=           0 FMFlag=      100000 FMFlg1=         800
         NFxFlg=           0 DoJE=F BraDBF=F KetDBF=F FulRan=T
         wScrn=  0.000000 ICntrl=    2127 IOpCl=  0 I1Cent=           0 NGrid=           0
         NMat0=    1 NMatS0=      1 NMatT0=    0 NMatD0=    1 NMtDS0=    0 NMtDT0=    0
 Symmetry not used in FoFCou.
 Defaulting to unpruned grid for atomic number  83.
 Defaulting to unpruned grid for atomic number  83.
 Defaulting to unpruned grid for atomic number  83.
 Defaulting to unpruned grid for atomic number  83.
 Leave Link  703 at Tue Mar  6 12:30:16 2018, MaxMem=   536870912 cpu:      1759.0
 (Enter /share/apps//mg09/l716.exe)
 Dipole        =-4.18623581D-04 3.34028703D-01-3.13955480D-01
 ***** Axes restored to original set *****
 -------------------------------------------------------------------
 Center     Atomic                   Forces (Hartrees/Bohr)
 Number     Number              X              Y              Z
 -------------------------------------------------------------------
      1       83          -0.006742893   -0.005303291    0.003863996
      2       83           0.008002732    0.003326169    0.003134349
      3       50          -0.012269470    0.000770723   -0.008594321
      4       50           0.012319874    0.000747474   -0.008483868
      5       32          -0.000023660   -0.011705568   -0.006925264
      6       32           0.000024846    0.013736679   -0.001245059
      7       83          -0.008078236    0.003272793    0.003167265
      8       83           0.006736373   -0.005334203    0.003812908
      9       32           0.000030434    0.000489224    0.011269994
 -------------------------------------------------------------------
 Cartesian Forces:  Max     0.013736679 RMS     0.006937860
 Force constants in Cartesian coordinates: 
                1             2             3             4             5 
      1  0.175300D+00
      2  0.382655D-01  0.184594D+00
      3 -0.280843D-01 -0.965419D-03  0.161557D+00
      4 -0.160010D-02 -0.875210D-02  0.195145D-02  0.151321D+00
      5 -0.258038D-02  0.144594D-03  0.296825D-02  0.302696D-01  0.141403D+00
      6 -0.370375D-02 -0.201765D-02  0.541237D-02  0.213080D-01 -0.870866D-03
      7 -0.225017D-01 -0.152616D-01  0.909864D-02 -0.140578D-02 -0.425069D-02
      8  0.378513D-02 -0.250019D-01  0.208295D-01 -0.624607D-03  0.557142D-02
      9 -0.175436D-01  0.467726D-02 -0.335133D-01 -0.869053D-02 -0.379304D-02
     10 -0.125611D-02 -0.738544D-02  0.557086D-02 -0.226231D-01 -0.128960D-01
     11 -0.276668D-02  0.345792D-02  0.486415D-03 -0.273922D-02 -0.232533D-01
     12  0.870650D-02  0.628252D-02  0.999867D-03  0.180118D-01 -0.357704D-02
     13 -0.413500D-01  0.115291D-01  0.363752D-01  0.171036D-02 -0.279264D-03
     14 -0.130583D-01 -0.334430D-01  0.677041D-02 -0.595888D-02  0.278113D-03
     15  0.176344D-01 -0.240189D-01 -0.587908D-01 -0.408959D-02 -0.617759D-02
     16  0.285096D-02  0.594598D-03 -0.129288D-02 -0.476175D-01  0.237517D-01
     17 -0.798881D-02 -0.367926D-02  0.308714D-02 -0.462749D-02 -0.359583D-01
     18  0.243396D-02  0.423863D-02  0.454871D-02 -0.224836D-01  0.254304D-01
     19 -0.239415D-01 -0.153056D-01  0.777225D-02 -0.880843D-02  0.376902D-03
     20  0.198950D-01 -0.633145D-01 -0.914548D-02 -0.379286D-03  0.282849D-02
     21  0.760673D-02  0.687133D-02 -0.220119D-01 -0.287038D-03 -0.357613D-02
     22 -0.517855D-01  0.165179D-01 -0.836728D-02 -0.239023D-01 -0.198425D-01
     23 -0.165186D-01 -0.272870D-01  0.511760D-02  0.153206D-01 -0.632319D-01
     24  0.836284D-02  0.511792D-02 -0.163514D-01 -0.775781D-02 -0.918560D-02
     25 -0.357157D-01 -0.202023D-01 -0.230239D-01 -0.470742D-01 -0.145494D-01
     26 -0.190329D-01 -0.354708D-01 -0.291484D-01 -0.225087D-01 -0.277820D-01
     27  0.458727D-02 -0.185652D-03 -0.418504D-01  0.203726D-02 -0.121837D-02
                6             7             8             9            10 
      6  0.142107D+00
      7 -0.122253D-02  0.158844D+00
      8  0.127878D-02 -0.960276D-02  0.137136D+00
      9  0.345886D-03  0.439642D-01  0.250869D-02  0.175749D+00
     10 -0.157366D-01 -0.457459D-01 -0.259613D-02  0.189304D-01  0.159007D+00
     11 -0.195123D-01  0.262167D-02 -0.128077D-01  0.133218D-02  0.960405D-02
     12 -0.531518D-01 -0.189631D-01  0.134399D-02 -0.284400D-01 -0.439630D-01
     13 -0.511194D-04 -0.339739D-01  0.287738D-01 -0.207936D-03 -0.340119D-01
     14 -0.634433D-02  0.351168D-02 -0.465694D-01 -0.157942D-01 -0.351741D-02
     15  0.422479D-02 -0.170297D-01  0.152013D-01 -0.291384D-01  0.170406D-01
     16 -0.235290D-01 -0.344801D-01 -0.242663D-01 -0.108166D-01 -0.344688D-01
     17  0.119687D-02  0.288614D-02 -0.445714D-01  0.709206D-02 -0.290759D-02
     18 -0.375307D-01 -0.181025D-01 -0.220427D-01 -0.282921D-01  0.180660D-01
     19  0.273114D-03 -0.226072D-01  0.278703D-02 -0.179551D-01 -0.142330D-02
     20 -0.357632D-02  0.128834D-01 -0.232145D-01 -0.352355D-02  0.425192D-02
     21  0.552817D-02  0.157976D-01 -0.194583D-01 -0.531007D-01  0.121728D-02
     22 -0.761649D-02 -0.123687D-02  0.277437D-02 -0.870288D-02 -0.225747D-01
     23  0.687035D-02  0.738494D-02  0.345785D-02  0.629317D-02  0.152721D-01
     24 -0.219895D-01 -0.556977D-02  0.492501D-03  0.980421D-03 -0.910479D-02
     25  0.302784D-01  0.310760D-02 -0.103050D-02  0.102204D-02  0.309632D-02
     26  0.229754D-01 -0.172757D-03  0.599984D-02  0.120742D-02  0.174517D-03
     27 -0.449465D-01 -0.797295D-02 -0.153724D-03 -0.459035D-02  0.797921D-02
               11            12            13            14            15 
     11  0.137125D+00
     12  0.250427D-02  0.175743D+00
     13 -0.288043D-01  0.173783D-03  0.128938D+00
     14 -0.464858D-01 -0.157977D-01  0.137912D-04  0.163759D+00
     15  0.151290D-01 -0.290930D-01  0.241586D-04  0.360018D-01  0.167793D+00
     16  0.242758D-01  0.107767D-01  0.889020D-02 -0.755277D-05  0.765940D-05
     17 -0.444950D-01  0.710139D-02 -0.124825D-05 -0.604407D-02 -0.553861D-02
     18 -0.219633D-01 -0.281894D-01  0.962844D-05  0.219031D-02  0.340083D-02
     19  0.614953D-03  0.868798D-02  0.170419D-02  0.595747D-02  0.407811D-02
     20  0.556139D-02 -0.379069D-02  0.295902D-03  0.278186D-03 -0.618345D-02
     21  0.127864D-02  0.365500D-03  0.523864D-04 -0.634508D-02  0.423159D-02
     22 -0.383586D-02  0.175816D-01 -0.413387D-01  0.130562D-01 -0.176662D-01
     23 -0.251165D-01  0.472651D-02 -0.115292D-01 -0.334384D-01 -0.240134D-01
     24  0.208942D-01 -0.336485D-01 -0.363767D-01  0.678156D-02 -0.587882D-01
     25  0.102963D-02 -0.101230D-02  0.943136D-02  0.295391D-05  0.000000D+00
     26  0.601406D-02  0.120679D-02  0.148929D-05  0.166565D-02 -0.400060D-03
     27 -0.149096D-03 -0.458566D-02  0.000000D+00 -0.746277D-02 -0.383937D-02
               16            17            18            19            20 
     16  0.140871D+00
     17  0.104049D-04  0.176704D+00
     18  0.990229D-04 -0.213599D-01  0.124277D+00
     19 -0.476048D-01  0.464018D-02  0.224106D-01  0.151314D+00
     20 -0.237567D-01 -0.359209D-01  0.253826D-01 -0.302800D-01  0.141347D+00
     21  0.234606D-01  0.119881D-02 -0.373972D-01 -0.212851D-01 -0.918111D-03
     22  0.285101D-02  0.798643D-02 -0.243798D-02 -0.160295D-02  0.257889D-02
     23 -0.601553D-03 -0.367810D-02  0.423931D-02  0.875381D-02  0.150201D-03
     24  0.128606D-02  0.309943D-02  0.455146D-02 -0.195982D-02  0.296793D-02
     25  0.870825D-02  0.198448D-05  0.476923D-05 -0.470300D-01  0.145109D-01
     26  0.000000D+00 -0.235740D-02  0.388466D-02  0.224553D-01 -0.277154D-01
     27  0.854096D-05  0.412282D-02 -0.536851D-02 -0.202204D-02 -0.121298D-02
               21            22            23            24            25 
     21  0.141907D+00
     22  0.369922D-02  0.175281D+00
     23 -0.201401D-02 -0.382530D-01  0.184568D+00
     24  0.540857D-02  0.281037D-01 -0.106425D-02  0.161635D+00
     25 -0.302616D-01 -0.356906D-01  0.201709D-01  0.230163D-01  0.141167D+00
     26  0.229628D-01  0.190175D-01 -0.354240D-01 -0.291037D-01  0.658615D-04
     27 -0.449306D-01 -0.459369D-02 -0.155250D-03 -0.417975D-01 -0.241949D-04
               26            27 
     26  0.115070D+00
     27  0.641502D-02  0.191909D+00
 Leave Link  716 at Tue Mar  6 12:30:16 2018, MaxMem=   536870912 cpu:         0.6
 (Enter /share/apps//mg09/l103.exe)

 GradGradGradGradGradGradGradGradGradGradGradGradGradGradGradGradGradGrad
 Berny optimization.
 Search for a local minimum.
 Step number   1 out of a maximum of  100
 All quantities printed in internal units (Hartrees-Bohrs-Radians)
 Second derivative matrix not updated -- first step.
 ITU=  0
     Eigenvalues ---    0.08604   0.12059   0.12425   0.12787   0.14420
     Eigenvalues ---    0.14549   0.15046   0.15528   0.15625   0.15978
     Eigenvalues ---    0.17422   0.22711   0.23567   0.24247   0.24370
     Eigenvalues ---    0.25119   0.26382   0.28071   0.28799   0.30237
     Eigenvalues ---    0.31157
 RFO step:  Lambda=-7.82539032D-03 EMin= 8.60385553D-02
 Linear search not attempted -- first point.
 TrRot=  0.000000  0.000240  0.000643  0.000001 -0.000003  0.000001
 Variable       Old X    -DE/DX   Delta X   Delta X   Delta X     New X
                                 (Linear)    (Quad)   (Total)
    X1        3.00459  -0.00674   0.00000  -0.03834  -0.03834   2.96625
    Y1        3.08473  -0.00530   0.00000  -0.03782  -0.03758   3.04715
    Z1       -1.10555   0.00386   0.00000   0.02132   0.02197  -1.08358
    X2       -3.79826   0.00800   0.00000   0.05765   0.05765  -3.74060
    Y2       -2.57098   0.00333   0.00000   0.02348   0.02371  -2.54727
    Z2       -1.44376   0.00313   0.00000   0.01933   0.01996  -1.42379
    X3        3.03363  -0.01227   0.00000  -0.06579  -0.06580   2.96783
    Y3       -0.57276   0.00077   0.00000   0.00683   0.00708  -0.56569
    Z3        4.03226  -0.00859   0.00000  -0.05339  -0.05274   3.97952
    X4       -3.04071   0.01232   0.00000   0.06630   0.06629  -2.97442
    Y4       -0.56985   0.00075   0.00000   0.00658   0.00682  -0.56303
    Z4        4.02606  -0.00848   0.00000  -0.05275  -0.05211   3.97394
    X5        0.00029  -0.00002   0.00000  -0.00022  -0.00023   0.00006
    Y5        4.02588  -0.01171   0.00000  -0.07527  -0.07503   3.95086
    Z5        3.36643  -0.00693   0.00000  -0.03651  -0.03586   3.33057
    X6       -0.00086   0.00002   0.00000   0.00003   0.00003  -0.00082
    Y6       -4.70158   0.01374   0.00000   0.08443   0.08467  -4.61691
    Z6        1.88438  -0.00125   0.00000  -0.00579  -0.00515   1.87923
    X7        3.80160  -0.00808   0.00000  -0.05810  -0.05810   3.74351
    Y7       -2.56887   0.00327   0.00000   0.02305   0.02330  -2.54557
    Z7       -1.43983   0.00317   0.00000   0.01948   0.02013  -1.41970
    X8       -3.00414   0.00674   0.00000   0.03827   0.03827  -2.96587
    Y8        3.08465  -0.00533   0.00000  -0.03796  -0.03772   3.04693
    Z8       -1.10544   0.00381   0.00000   0.02099   0.02163  -1.08381
    X9        0.00177   0.00003   0.00000   0.00021   0.00022   0.00200
    Y9       -0.20935   0.00049   0.00000   0.00452   0.00476  -0.20459
    Z9       -4.62788   0.01127   0.00000   0.06153   0.06217  -4.56570
         Item               Value     Threshold  Converged?
 Maximum Force            0.013737     0.000450     NO 
 RMS     Force            0.006938     0.000300     NO 
 Maximum Displacement     0.084670     0.001800     NO 
 RMS     Displacement     0.042007     0.001200     NO 
 Predicted change in Energy=-4.099129D-03
 Lowest energy point so far.  Saving SCF results.
 GradGradGradGradGradGradGradGradGradGradGradGradGradGradGradGradGradGrad

 Leave Link  103 at Tue Mar  6 12:30:16 2018, MaxMem=   536870912 cpu:         0.1
 (Enter /share/apps//mg09/l202.exe)
                          Input orientation:                          
 ---------------------------------------------------------------------
 Center     Atomic      Atomic             Coordinates (Angstroms)
 Number     Number       Type             X           Y           Z
 ---------------------------------------------------------------------
      1         83           0        1.569672    1.612483   -0.573406
      2         83           0       -1.979441   -1.347955   -0.753439
      3         50           0        1.570510   -0.299349    2.105870
      4         50           0       -1.573997   -0.297943    2.102921
      5         32           0        0.000030    2.090704    1.762460
      6         32           0       -0.000435   -2.443162    0.994446
      7         83           0        1.980978   -1.347059   -0.751272
      8         83           0       -1.569469    1.612368   -0.573527
      9         32           0        0.001057   -0.108265   -2.416067
 ---------------------------------------------------------------------
                    Distance matrix (angstroms):
                    1          2          3          4          5
     1  Bi   0.000000
     2  Bi   4.625236   0.000000
     3  Sn   3.291447   4.677325   0.000000
     4  Sn   4.549188   3.070130   3.144508   0.000000
     5  Ge   2.854601   4.698130   2.880398   2.880818   0.000000
     6  Ge   4.622949   2.858504   2.880809   2.882148   4.598455
     7  Bi   2.993276   3.960420   3.070739   4.678131   4.696938
     8  Bi   3.139141   2.993986   4.548989   3.288265   2.854640
     9  Ge   2.969331   2.867670   4.790365   4.789365   4.721817
                    6          7          8          9
     6  Ge   0.000000
     7  Bi   2.859191   0.000000
     8  Bi   4.622524   4.625525   0.000000
     9  Ge   4.133199   2.868142   2.970199   0.000000
 Stoichiometry    Bi4Ge3Sn2
 Framework group  C1[X(Bi4Ge3Sn2)]
 Deg. of freedom    21
 Full point group                 C1      NOp   1
 RotChk:  IX=0 Diff= 4.20D-03
 Largest Abelian subgroup         C1      NOp   1
 Largest concise Abelian subgroup C1      NOp   1
                         Standard orientation:                         
 ---------------------------------------------------------------------
 Center     Atomic      Atomic             Coordinates (Angstroms)
 Number     Number       Type             X           Y           Z
 ---------------------------------------------------------------------
      1         83           0        1.569576    1.612019   -0.580729
      2         83           0       -1.979445   -1.349070   -0.751636
      3         50           0        1.570734   -0.291848    2.104213
      4         50           0       -1.573773   -0.290565    2.101554
      5         32           0        0.000135    2.097118    1.753853
      6         32           0       -0.000236   -2.439009    0.999308
      7         83           0        1.980974   -1.348024   -0.749843
      8         83           0       -1.569565    1.611789   -0.580556
      9         32           0        0.000852   -0.114252   -2.418124
 ---------------------------------------------------------------------
 Rotational constants (GHZ):      0.1056507      0.0935337      0.0859006
 Leave Link  202 at Tue Mar  6 12:30:17 2018, MaxMem=   536870912 cpu:         0.1
 (Enter /share/apps//mg09/l301.exe)
 Standard basis: def2TZVP (5D, 7F)
 Ernie: Thresh=  0.10000D-02 Tol=  0.10000D-05 Strict=F.
 There are   519 symmetry adapted cartesian basis functions of A   symmetry.
 There are   444 symmetry adapted basis functions of A   symmetry.
   444 basis functions,   963 primitive gaussians,   519 cartesian basis functions
   116 alpha electrons      116 beta electrons
       nuclear repulsion energy      3568.8307216113 Hartrees.
 IExCor= 1009 DFT=T Ex+Corr=PBE1PBE ExCW=0 ScaHFX=  0.250000
 ScaDFX=  0.750000  0.750000  1.000000  1.000000 ScalE2=  1.000000  1.000000
 IRadAn=      0 IRanWt=     -1 IRanGd=            0 ICorTp=0 IEmpDi=  4
 NAtoms=    9 NActive=    9 NUniq=    9 SFac= 1.00D+00 NAtFMM=   60 NAOKFM=F Big=F
 Integral buffers will be    131072 words long.
 Raffenetti 2 integral format.
 Two-electron integral symmetry is turned on.
 Leave Link  301 at Tue Mar  6 12:30:18 2018, MaxMem=   536870912 cpu:         0.2
 (Enter /share/apps//mg09/l302.exe)
 NPDir=0 NMtPBC=     1 NCelOv=     1 NCel=       1 NClECP=     1 NCelD=      1
         NCelK=      1 NCelE2=     1 NClLst=     1 CellRange=     0.0.
 One-electron integrals computed using PRISM.
   1 Symmetry operations used in ECPInt.
 ECPInt:  NShTT=   10440 NPrTT=   41973 LenC2=    9691 LenP2D=   27696.
 LDataN:  DoStor=T MaxTD1= 8 Len=  415
 NBasis=   444 RedAO= T EigKep=  1.25D-03  NBF=   444
 NBsUse=   444 1.00D-06 EigRej= -1.00D+00 NBFU=   444
 Precomputing XC quadrature grid using
 IXCGrd= 4 IRadAn=           0 IRanWt=          -1 IRanGd=           0 AccXCQ= 0.00D+00.
 Defaulting to unpruned grid for atomic number  83.
 Defaulting to unpruned grid for atomic number  50.
 Defaulting to unpruned grid for atomic number  83.
 Generated NRdTot=       0 NPtTot=           0 NUsed=           0 NTot=          32
 NSgBfM=   504   505   505   505   505 MxSgAt=     9 MxSgA2=     9.
 Leave Link  302 at Tue Mar  6 12:30:32 2018, MaxMem=   536870912 cpu:        58.1
 (Enter /share/apps//mg09/l303.exe)
 DipDrv:  MaxL=1.
 Leave Link  303 at Tue Mar  6 12:30:33 2018, MaxMem=   536870912 cpu:         0.3
 (Enter /share/apps//mg09/l401.exe)
 Initial guess from the checkpoint file:  "Isomer_29.chk"
 B after Tr=     0.000000    0.000000    0.000000
         Rot=    0.999999    0.001419   -0.000046   -0.000014 Ang=   0.16 deg.
 Guess basis will be translated and rotated to current coordinates.
 JPrj=2 DoOrth=T DoCkMO=T.
 Generating alternative initial guess.
 ExpMin= 4.62D-02 ExpMax= 4.66D+05 ExpMxC= 4.50D+03 IAcc=2 IRadAn=         4 AccDes= 0.00D+00
 Harris functional with IExCor= 1009 and IRadAn=       4 diagonalized for initial guess.
 HarFok:  IExCor= 1009 AccDes= 0.00D+00 IRadAn=         4 IDoV= 1 UseB2=F ITyADJ=14
 ICtDFT=  3500011 ScaDFX=  1.000000  1.000000  1.000000  1.000000
 Defaulting to unpruned grid for atomic number  83.
 Defaulting to unpruned grid for atomic number  83.
 Defaulting to unpruned grid for atomic number  83.
 Defaulting to unpruned grid for atomic number  83.
 FoFCou: FMM=F IPFlag=           0 FMFlag=      100000 FMFlg1=           0
         NFxFlg=           0 DoJE=T BraDBF=F KetDBF=T FulRan=T
         wScrn=  0.000000 ICntrl=     500 IOpCl=  0 I1Cent=   200000004 NGrid=           0
         NMat0=    1 NMatS0=      1 NMatT0=    0 NMatD0=    1 NMtDS0=    0 NMtDT0=    0
 Petite list used in FoFCou.
 Harris En= -7518.61408825018    
 Leave Link  401 at Tue Mar  6 12:30:38 2018, MaxMem=   536870912 cpu:        21.5
 (Enter /share/apps//mg09/l502.exe)
 Closed shell SCF:
 Using DIIS extrapolation, IDIIS=  1040.
 Integral symmetry usage will be decided dynamically.
 IVT=     1410107 IEndB=     1410107 NGot=   536870912 MDV=   536322046
 LenX=   536322046 LenY=   536052166
 Requested convergence on RMS density matrix=1.00D-08 within 768 cycles.
 Requested convergence on MAX density matrix=1.00D-06.
 Requested convergence on             energy=1.00D-06.
 No special actions if energy rises.
 Fock matrices will be formed incrementally for  20 cycles.

 Cycle   1  Pass 1  IDiag  1:
 FoFJK:  IHMeth= 1 ICntrl=       0 DoSepK=F KAlg= 0 I1Cent=   0 FoldK=F
 IRaf= 880000000 NMat=   1 IRICut=       1 DoRegI=T DoRafI=F ISym2E= 0.
 FoFCou: FMM=F IPFlag=           0 FMFlag=      100000 FMFlg1=           0
         NFxFlg=           0 DoJE=F BraDBF=F KetDBF=F FulRan=T
         wScrn=  0.000000 ICntrl=       0 IOpCl=  0 I1Cent=           0 NGrid=           0
         NMat0=    1 NMatS0=      1 NMatT0=    0 NMatD0=    1 NMtDS0=    0 NMtDT0=    0
 Symmetry not used in FoFCou.
 Defaulting to unpruned grid for atomic number  83.
 Defaulting to unpruned grid for atomic number  83.
 Defaulting to unpruned grid for atomic number  83.
 Defaulting to unpruned grid for atomic number  83.
 E= -7517.81661264393    
 DIIS: error= 6.93D-03 at cycle   1 NSaved=   1.
 NSaved= 1 IEnMin= 1 EnMin= -7517.81661264393     IErMin= 1 ErrMin= 6.93D-03
 ErrMax= 6.93D-03  0.00D+00 EMaxC= 1.00D-01 BMatC= 8.92D-03 BMatP= 8.92D-03
 IDIUse=3 WtCom= 9.31D-01 WtEn= 6.93D-02
 Coeff-Com:  0.100D+01
 Coeff-En:   0.100D+01
 Coeff:      0.100D+01
 Gap=     8.151 Goal=   None    Shift=    0.000
 GapD=    8.151 DampG=2.000 DampE=1.000 DampFc=2.0000 IDamp=-1.
 RMSDP=1.74D-04 MaxDP=4.37D-03              OVMax= 2.17D-02

 Cycle   2  Pass 1  IDiag  1:
 RMSU=  1.74D-04    CP:  1.00D+00
 E= -7517.81670318560     Delta-E=       -0.000090541671 Rises=F Damp=F
 DIIS: error= 1.68D-03 at cycle   2 NSaved=   2.
 NSaved= 2 IEnMin= 2 EnMin= -7517.81670318560     IErMin= 2 ErrMin= 1.68D-03
 ErrMax= 1.68D-03  0.00D+00 EMaxC= 1.00D-01 BMatC= 1.49D-03 BMatP= 8.92D-03
 IDIUse=3 WtCom= 9.83D-01 WtEn= 1.68D-02
 Coeff-Com:  0.180D+00 0.820D+00
 Coeff-En:   0.472D+00 0.528D+00
 Coeff:      0.185D+00 0.815D+00
 Gap=     0.124 Goal=   None    Shift=    0.000
 RMSDP=2.01D-04 MaxDP=8.74D-03 DE=-9.05D-05 OVMax= 1.52D-02

 Cycle   3  Pass 1  IDiag  1:
 RMSU=  1.80D-04    CP:  9.99D-01  5.06D-01
 E= -7517.81512452097     Delta-E=        0.001578664629 Rises=F Damp=F
 DIIS: error= 2.55D-03 at cycle   3 NSaved=   3.
 NSaved= 3 IEnMin= 2 EnMin= -7517.81670318560     IErMin= 2 ErrMin= 1.68D-03
 ErrMax= 2.55D-03  0.00D+00 EMaxC= 1.00D-01 BMatC= 3.48D-03 BMatP= 1.49D-03
 IDIUse=3 WtCom= 1.65D-01 WtEn= 8.35D-01
 Coeff-Com:  0.385D-02 0.604D+00 0.392D+00
 Coeff-En:   0.000D+00 0.658D+00 0.342D+00
 Coeff:      0.636D-03 0.649D+00 0.350D+00
 Gap=     0.126 Goal=   None    Shift=    0.000
 RMSDP=1.07D-04 MaxDP=5.16D-03 DE= 1.58D-03 OVMax= 9.70D-03

 Cycle   4  Pass 1  IDiag  1:
 RMSU=  3.08D-05    CP:  9.99D-01  7.83D-01  5.08D-01
 E= -7517.81774421243     Delta-E=       -0.002619691459 Rises=F Damp=F
 DIIS: error= 3.88D-04 at cycle   4 NSaved=   4.
 NSaved= 4 IEnMin= 4 EnMin= -7517.81774421243     IErMin= 4 ErrMin= 3.88D-04
 ErrMax= 3.88D-04  0.00D+00 EMaxC= 1.00D-01 BMatC= 1.28D-04 BMatP= 1.49D-03
 IDIUse=3 WtCom= 9.96D-01 WtEn= 3.88D-03
 Coeff-Com: -0.121D-03 0.414D+00 0.219D+00 0.368D+00
 Coeff-En:   0.000D+00 0.459D-01 0.000D+00 0.954D+00
 Coeff:     -0.121D-03 0.412D+00 0.218D+00 0.370D+00
 Gap=     0.126 Goal=   None    Shift=    0.000
 RMSDP=3.17D-05 MaxDP=1.25D-03 DE=-2.62D-03 OVMax= 3.69D-03

 Cycle   5  Pass 1  IDiag  1:
 RMSU=  1.49D-05    CP:  9.99D-01  8.40D-01  4.55D-01  2.11D-01
 E= -7517.81783100883     Delta-E=       -0.000086796405 Rises=F Damp=F
 DIIS: error= 1.65D-04 at cycle   5 NSaved=   5.
 NSaved= 5 IEnMin= 5 EnMin= -7517.81783100883     IErMin= 5 ErrMin= 1.65D-04
 ErrMax= 1.65D-04  0.00D+00 EMaxC= 1.00D-01 BMatC= 2.11D-05 BMatP= 1.28D-04
 IDIUse=3 WtCom= 9.98D-01 WtEn= 1.65D-03
 Coeff-Com: -0.839D-03 0.219D+00 0.994D-01 0.316D+00 0.366D+00
 Coeff-En:   0.000D+00 0.000D+00 0.000D+00 0.212D+00 0.788D+00
 Coeff:     -0.838D-03 0.219D+00 0.993D-01 0.316D+00 0.367D+00
 Gap=     0.126 Goal=   None    Shift=    0.000
 RMSDP=1.13D-05 MaxDP=4.78D-04 DE=-8.68D-05 OVMax= 1.38D-03

 Cycle   6  Pass 1  IDiag  1:
 RMSU=  3.64D-06    CP:  9.99D-01  8.48D-01  4.48D-01  4.54D-01  5.11D-01
 E= -7517.81785532937     Delta-E=       -0.000024320536 Rises=F Damp=F
 DIIS: error= 1.48D-05 at cycle   6 NSaved=   6.
 NSaved= 6 IEnMin= 6 EnMin= -7517.81785532937     IErMin= 6 ErrMin= 1.48D-05
 ErrMax= 1.48D-05  0.00D+00 EMaxC= 1.00D-01 BMatC= 3.05D-07 BMatP= 2.11D-05
 IDIUse=1 WtCom= 1.00D+00 WtEn= 0.00D+00
 Coeff-Com: -0.380D-03 0.744D-01 0.325D-01 0.127D+00 0.174D+00 0.592D+00
 Coeff:     -0.380D-03 0.744D-01 0.325D-01 0.127D+00 0.174D+00 0.592D+00
 Gap=     0.126 Goal=   None    Shift=    0.000
 RMSDP=2.69D-06 MaxDP=1.18D-04 DE=-2.43D-05 OVMax= 3.26D-04

 Cycle   7  Pass 1  IDiag  1:
 RMSU=  2.39D-06    CP:  9.99D-01  8.50D-01  4.49D-01  4.61D-01  5.59D-01
                    CP:  7.79D-01
 E= -7517.81785519714     Delta-E=        0.000000132231 Rises=F Damp=F
 DIIS: error= 2.22D-05 at cycle   7 NSaved=   7.
 NSaved= 7 IEnMin= 6 EnMin= -7517.81785532937     IErMin= 6 ErrMin= 1.48D-05
 ErrMax= 2.22D-05  0.00D+00 EMaxC= 1.00D-01 BMatC= 3.83D-07 BMatP= 3.05D-07
 IDIUse=1 WtCom= 1.00D+00 WtEn= 0.00D+00
 Coeff-Com: -0.110D-03 0.569D-02 0.205D-02 0.271D-01 0.557D-01 0.532D+00
 Coeff-Com:  0.378D+00
 Coeff:     -0.110D-03 0.569D-02 0.205D-02 0.271D-01 0.557D-01 0.532D+00
 Coeff:      0.378D+00
 Gap=     0.126 Goal=   None    Shift=    0.000
 RMSDP=2.00D-06 MaxDP=7.98D-05 DE= 1.32D-07 OVMax= 2.50D-04

 Cycle   8  Pass 1  IDiag  1:
 RMSU=  9.23D-07    CP:  9.99D-01  8.52D-01  4.51D-01  4.66D-01  5.70D-01
                    CP:  1.03D+00  3.92D-01
 E= -7517.81785561777     Delta-E=       -0.000000420632 Rises=F Damp=F
 DIIS: error= 8.75D-06 at cycle   8 NSaved=   8.
 NSaved= 8 IEnMin= 8 EnMin= -7517.81785561777     IErMin= 8 ErrMin= 8.75D-06
 ErrMax= 8.75D-06  0.00D+00 EMaxC= 1.00D-01 BMatC= 4.85D-08 BMatP= 3.05D-07
 IDIUse=1 WtCom= 1.00D+00 WtEn= 0.00D+00
 Coeff-Com:  0.347D-05-0.133D-01-0.561D-02-0.893D-02 0.322D-02 0.273D+00
 Coeff-Com:  0.291D+00 0.461D+00
 Coeff:      0.347D-05-0.133D-01-0.561D-02-0.893D-02 0.322D-02 0.273D+00
 Coeff:      0.291D+00 0.461D+00
 Gap=     0.126 Goal=   None    Shift=    0.000
 RMSDP=7.15D-07 MaxDP=3.03D-05 DE=-4.21D-07 OVMax= 8.98D-05

 Cycle   9  Pass 1  IDiag  1:
 RMSU=  2.61D-07    CP:  9.99D-01  8.52D-01  4.52D-01  4.66D-01  5.78D-01
                    CP:  1.05D+00  5.40D-01  4.52D-01
 E= -7517.81785567467     Delta-E=       -0.000000056905 Rises=F Damp=F
 DIIS: error= 1.62D-06 at cycle   9 NSaved=   9.
 NSaved= 9 IEnMin= 9 EnMin= -7517.81785567467     IErMin= 9 ErrMin= 1.62D-06
 ErrMax= 1.62D-06  0.00D+00 EMaxC= 1.00D-01 BMatC= 3.53D-09 BMatP= 4.85D-08
 IDIUse=1 WtCom= 1.00D+00 WtEn= 0.00D+00
 Coeff-Com:  0.179D-04-0.922D-02-0.365D-02-0.955D-02-0.610D-02 0.101D+00
 Coeff-Com:  0.130D+00 0.283D+00 0.514D+00
 Coeff:      0.179D-04-0.922D-02-0.365D-02-0.955D-02-0.610D-02 0.101D+00
 Coeff:      0.130D+00 0.283D+00 0.514D+00
 Gap=     0.126 Goal=   None    Shift=    0.000
 RMSDP=1.83D-07 MaxDP=1.11D-05 DE=-5.69D-08 OVMax= 2.29D-05

 Cycle  10  Pass 1  IDiag  1:
 RMSU=  8.57D-08    CP:  9.99D-01  8.52D-01  4.53D-01  4.68D-01  5.82D-01
                    CP:  1.05D+00  5.32D-01  5.62D-01  7.32D-01
 E= -7517.81785567797     Delta-E=       -0.000000003300 Rises=F Damp=F
 DIIS: error= 2.15D-07 at cycle  10 NSaved=  10.
 NSaved=10 IEnMin=10 EnMin= -7517.81785567797     IErMin=10 ErrMin= 2.15D-07
 ErrMax= 2.15D-07  0.00D+00 EMaxC= 1.00D-01 BMatC= 8.19D-11 BMatP= 3.53D-09
 IDIUse=1 WtCom= 1.00D+00 WtEn= 0.00D+00
 Coeff-Com:  0.478D-05-0.174D-02-0.616D-03-0.208D-02-0.235D-02 0.938D-02
 Coeff-Com:  0.171D-01 0.512D-01 0.162D+00 0.767D+00
 Coeff:      0.478D-05-0.174D-02-0.616D-03-0.208D-02-0.235D-02 0.938D-02
 Coeff:      0.171D-01 0.512D-01 0.162D+00 0.767D+00
 Gap=     0.126 Goal=   None    Shift=    0.000
 RMSDP=4.23D-08 MaxDP=1.61D-06 DE=-3.30D-09 OVMax= 6.12D-06

 Cycle  11  Pass 1  IDiag  1:
 RMSU=  2.29D-08    CP:  9.99D-01  8.52D-01  4.53D-01  4.68D-01  5.83D-01
                    CP:  1.06D+00  5.35D-01  5.60D-01  8.00D-01  1.06D+00
 E= -7517.81785567826     Delta-E=       -0.000000000286 Rises=F Damp=F
 DIIS: error= 1.38D-07 at cycle  11 NSaved=  11.
 NSaved=11 IEnMin=11 EnMin= -7517.81785567826     IErMin=11 ErrMin= 1.38D-07
 ErrMax= 1.38D-07  0.00D+00 EMaxC= 1.00D-01 BMatC= 2.03D-11 BMatP= 8.19D-11
 IDIUse=1 WtCom= 1.00D+00 WtEn= 0.00D+00
 Coeff-Com: -0.156D-06 0.430D-03 0.210D-03 0.314D-03-0.320D-03-0.962D-02
 Coeff-Com: -0.950D-02-0.126D-01 0.149D-01 0.414D+00 0.602D+00
 Coeff:     -0.156D-06 0.430D-03 0.210D-03 0.314D-03-0.320D-03-0.962D-02
 Coeff:     -0.950D-02-0.126D-01 0.149D-01 0.414D+00 0.602D+00
 Gap=     0.126 Goal=   None    Shift=    0.000
 RMSDP=1.56D-08 MaxDP=5.46D-07 DE=-2.86D-10 OVMax= 3.04D-06

 Cycle  12  Pass 1  IDiag  1:
 RMSU=  8.15D-09    CP:  9.99D-01  8.52D-01  4.53D-01  4.68D-01  5.83D-01
                    CP:  1.06D+00  5.37D-01  5.65D-01  8.12D-01  1.15D+00
                    CP:  8.06D-01
 E= -7517.81785567807     Delta-E=        0.000000000186 Rises=F Damp=F
 DIIS: error= 5.07D-08 at cycle  12 NSaved=  12.
 NSaved=12 IEnMin=11 EnMin= -7517.81785567826     IErMin=12 ErrMin= 5.07D-08
 ErrMax= 5.07D-08  0.00D+00 EMaxC= 1.00D-01 BMatC= 2.35D-12 BMatP= 2.03D-11
 IDIUse=1 WtCom= 1.00D+00 WtEn= 0.00D+00
 Coeff-Com: -0.472D-06 0.367D-03 0.161D-03 0.319D-03 0.491D-04-0.582D-02
 Coeff-Com: -0.650D-02-0.112D-01-0.686D-02 0.158D+00 0.333D+00 0.538D+00
 Coeff:     -0.472D-06 0.367D-03 0.161D-03 0.319D-03 0.491D-04-0.582D-02
 Coeff:     -0.650D-02-0.112D-01-0.686D-02 0.158D+00 0.333D+00 0.538D+00
 Gap=     0.126 Goal=   None    Shift=    0.000
 RMSDP=5.95D-09 MaxDP=4.11D-07 DE= 1.86D-10 OVMax= 6.58D-07

 SCF Done:  E(RPBE1PBE) =  -7517.81785568     A.U. after   12 cycles
            NFock= 12  Conv=0.59D-08     -V/T= 2.1284
 KE= 6.662207069923D+03 PE=-2.472906197068D+04 EE= 6.980206323466D+03
 Leave Link  502 at Tue Mar  6 12:48:54 2018, MaxMem=   536870912 cpu:      4093.5
 (Enter /share/apps//mg09/l701.exe)
 Compute integral first derivatives.
 ... and contract with generalized density number  0.
   1 Symmetry operations used in ECPInt.
 ECPInt:  NShTT=   10440 NPrTT=   41973 LenC2=    9691 LenP2D=   27696.
 LDataN:  DoStor=T MaxTD1= 9 Len=  602
 Leave Link  701 at Tue Mar  6 12:49:31 2018, MaxMem=   536870912 cpu:       145.9
 (Enter /share/apps//mg09/l702.exe)
 L702 exits ... SP integral derivatives will be done elsewhere.
 Leave Link  702 at Tue Mar  6 12:49:31 2018, MaxMem=   536870912 cpu:         0.1
 (Enter /share/apps//mg09/l703.exe)
 Compute integral first derivatives, UseDBF=F ICtDFT=           0.
 Integral derivatives from FoFJK, PRISM(SPDF).
 Calling FoFJK, ICntrl=      2127 FMM=F ISym2X=0 I1Cent= 0 IOpClX= 0 NMat=1 NMatS=1 NMatT=0.
 FoFJK:  IHMeth= 1 ICntrl=    2127 DoSepK=F KAlg= 0 I1Cent=   0 FoldK=F
 IRaf=         0 NMat=   1 IRICut=       1 DoRegI=T DoRafI=F ISym2E= 0.
 FoFCou: FMM=F IPFlag=           0 FMFlag=      100000 FMFlg1=         800
         NFxFlg=           0 DoJE=F BraDBF=F KetDBF=F FulRan=T
         wScrn=  0.000000 ICntrl=    2127 IOpCl=  0 I1Cent=           0 NGrid=           0
         NMat0=    1 NMatS0=      1 NMatT0=    0 NMatD0=    1 NMtDS0=    0 NMtDT0=    0
 Symmetry not used in FoFCou.
 Defaulting to unpruned grid for atomic number  83.
 Defaulting to unpruned grid for atomic number  83.
 Defaulting to unpruned grid for atomic number  83.
 Defaulting to unpruned grid for atomic number  83.
 Leave Link  703 at Tue Mar  6 12:55:59 2018, MaxMem=   536870912 cpu:      1482.4
 (Enter /share/apps//mg09/l716.exe)
 Dipole        =-3.99372769D-04 3.33819488D-01-3.60269263D-01
 ***** Axes restored to original set *****
 -------------------------------------------------------------------
 Center     Atomic                   Forces (Hartrees/Bohr)
 Number     Number              X              Y              Z
 -------------------------------------------------------------------
      1       83          -0.001754157   -0.000487307    0.001349029
      2       83           0.002629447   -0.000663916    0.000659534
      3       50          -0.006641208    0.000343562   -0.003668717
      4       50           0.006686344    0.000309687   -0.003584615
      5       32          -0.000020666   -0.005912375   -0.002599325
      6       32           0.000008719    0.006902914    0.000341238
      7       83          -0.002682885   -0.000706160    0.000685609
      8       83           0.001753504   -0.000508514    0.001291104
      9       32           0.000020903    0.000722109    0.005526144
 -------------------------------------------------------------------
 Cartesian Forces:  Max     0.006902914 RMS     0.003114879
 Leave Link  716 at Tue Mar  6 12:55:59 2018, MaxMem=   536870912 cpu:         0.1
 (Enter /share/apps//mg09/l103.exe)

 GradGradGradGradGradGradGradGradGradGradGradGradGradGradGradGradGradGrad
 Berny optimization.
 Search for a local minimum.
 Step number   2 out of a maximum of  100
 All quantities printed in internal units (Hartrees-Bohrs-Radians)
 Update second derivatives using D2CorN and points    1    2
 DE= -5.60D-03 DEPred=-4.10D-03 R= 1.37D+00
 TightC=F SS=  1.41D+00  RLast= 2.18D-01 DXNew= 5.0454D-01 6.5483D-01
 Trust test= 1.37D+00 RLast= 2.18D-01 DXMaxT set to 5.05D-01
 ITU=  1  0
     Eigenvalues ---    0.08176   0.09930   0.12058   0.12427   0.13071
     Eigenvalues ---    0.14438   0.14547   0.15094   0.15624   0.15751
     Eigenvalues ---    0.17421   0.22709   0.23567   0.24144   0.24371
     Eigenvalues ---    0.25107   0.26328   0.28082   0.28802   0.30239
     Eigenvalues ---    0.31157
 RFO step:  Lambda=-3.16569956D-04 EMin= 8.17631639D-02
 Quartic linear search produced a step of  0.63196.
 TrRot= -0.000002  0.000226  0.000312  0.000000 -0.000002  0.000000
 Variable       Old X    -DE/DX   Delta X   Delta X   Delta X     New X
                                 (Linear)    (Quad)   (Total)
    X1        2.96625  -0.00175  -0.02423   0.00680  -0.01743   2.94882
    Y1        3.04715  -0.00049  -0.02375   0.01034  -0.01318   3.03397
    Z1       -1.08358   0.00135   0.01389  -0.00058   0.01363  -1.06995
    X2       -3.74060   0.00263   0.03643   0.00026   0.03669  -3.70391
    Y2       -2.54727  -0.00066   0.01498  -0.01703  -0.00182  -2.54908
    Z2       -1.42379   0.00066   0.01262  -0.00586   0.00706  -1.41673
    X3        2.96783  -0.00664  -0.04158  -0.00975  -0.05134   2.91649
    Y3       -0.56569   0.00034   0.00447   0.00030   0.00500  -0.56068
    Z3        3.97952  -0.00367  -0.03333  -0.00257  -0.03559   3.94393
    X4       -2.97442   0.00669   0.04189   0.01012   0.05201  -2.92242
    Y4       -0.56303   0.00031   0.00431   0.00002   0.00455  -0.55848
    Z4        3.97394  -0.00358  -0.03293  -0.00219  -0.03482   3.93912
    X5        0.00006  -0.00002  -0.00014  -0.00019  -0.00035  -0.00029
    Y5        3.95086  -0.00591  -0.04741  -0.00640  -0.05359   3.89727
    Z5        3.33057  -0.00260  -0.02266   0.00061  -0.02174   3.30883
    X6       -0.00082   0.00001   0.00002  -0.00006  -0.00004  -0.00086
    Y6       -4.61691   0.00690   0.05351   0.00821   0.06195  -4.55496
    Z6        1.87923   0.00034  -0.00325   0.01111   0.00817   1.88740
    X7        3.74351  -0.00268  -0.03671  -0.00052  -0.03723   3.70627
    Y7       -2.54557  -0.00071   0.01472  -0.01731  -0.00236  -2.54793
    Z7       -1.41970   0.00069   0.01272  -0.00578   0.00726  -1.41244
    X8       -2.96587   0.00175   0.02418  -0.00677   0.01741  -2.94846
    Y8        3.04693  -0.00051  -0.02384   0.01027  -0.01334   3.03359
    Z8       -1.08381   0.00129   0.01367  -0.00091   0.01307  -1.07074
    X9        0.00200   0.00002   0.00014   0.00013   0.00028   0.00228
[...]
     22 -0.276400D-01 -0.106206D-02 -0.119921D-02 -0.160180D-02 -0.457676D-02
     23  0.106296D-02 -0.371384D-02  0.213465D-03 -0.425474D-02 -0.449402D-01
     24  0.117610D-02  0.212761D-03  0.348943D-02 -0.328740D-02  0.299316D-03
     25 -0.963006D-02 -0.108164D-01 -0.531360D-02 -0.189416D-01 -0.145901D-01
     26 -0.139371D-01 -0.577346D-02 -0.939052D-02 -0.146413D-01 -0.837868D-02
     27 -0.664086D-02 -0.768263D-02 -0.127099D-01  0.131433D-01  0.675880D-02
                6             7             8             9            10 
      6  0.620760D-01
      7 -0.237910D-02  0.540064D-01
      8 -0.252915D-02 -0.546580D-02  0.483403D-01
      9 -0.406470D-02  0.146650D-01  0.800613D-02  0.565286D-01
     10 -0.410172D-02 -0.255410D-01 -0.178722D-03  0.244951D-02  0.540322D-01
     11 -0.952248D-02  0.192902D-03  0.302313D-02 -0.244830D-03  0.545931D-02
     12 -0.266711D-01 -0.248223D-02 -0.246375D-03 -0.159162D-02 -0.146574D-01
     13 -0.121609D-02 -0.796678D-02  0.154140D-01 -0.222362D-02 -0.797677D-02
     14 -0.133376D-02  0.125470D-01 -0.227371D-01 -0.838050D-03 -0.125493D-01
     15 -0.242548D-02 -0.368135D-02  0.280795D-02 -0.106095D-02  0.367641D-02
     16 -0.192789D-01 -0.913333D-02 -0.127816D-01 -0.914422D-02 -0.914534D-02
     17  0.492079D-02 -0.100755D-01 -0.179364D-01 -0.557755D-02  0.100686D-01
     18 -0.144488D-01 -0.785646D-02 -0.983309D-02 -0.358641D-02  0.784014D-02
     19  0.191357D-02 -0.120602D-02  0.425859D-02  0.266241D-02 -0.484848D-02
     20  0.271601D-02  0.628856D-02 -0.241501D-02 -0.113455D-01 -0.324429D-02
     21 -0.698370D-03  0.413307D-02 -0.950940D-02 -0.266674D-01  0.237806D-02
     22 -0.493253D-02 -0.582417D-02  0.251073D-02 -0.474729D-03 -0.216980D-03
     23 -0.351953D-02 -0.188852D-02  0.220722D-03  0.432243D-03  0.292794D-02
     24 -0.126416D-02 -0.268847D-02  0.428749D-02 -0.482016D-02  0.584937D-03
     25  0.156098D-01  0.726577D-03 -0.183730D-02 -0.640357D-02  0.721913D-03
     26  0.673302D-02 -0.191041D-02 -0.286465D-02  0.166675D-02  0.190627D-02
     27 -0.158480D-01  0.862155D-03  0.347883D-03 -0.476216D-02 -0.856047D-03
               11            12            13            14            15 
     11  0.483317D-01
     12  0.797823D-02  0.565197D-01
     13 -0.154206D-01  0.221755D-02  0.460043D-01
     14 -0.227201D-01 -0.854375D-03 -0.449847D-05  0.648848D-01
     15  0.278865D-02 -0.105563D-02 -0.104475D-04  0.123488D-01  0.634164D-01
     16  0.127793D-01  0.912822D-02 -0.557490D-02  0.252235D-05 -0.362969D-05
     17 -0.179231D-01 -0.555250D-02  0.000000D+00 -0.313762D-02  0.153636D-02
     18 -0.980155D-02 -0.356013D-02 -0.225192D-05 -0.246456D-02 -0.107610D-02
     19  0.171843D-04 -0.782476D-03  0.380952D-03 -0.165962D-03 -0.154483D-02
     20 -0.101693D-02 -0.346032D-03  0.545883D-02 -0.235369D-02 -0.224400D-02
     21 -0.253091D-02 -0.406167D-02  0.122059D-02 -0.133660D-02 -0.242319D-02
     22  0.190322D-02  0.232314D-02 -0.123486D-01 -0.650279D-03 -0.185560D-01
     23 -0.463063D-02  0.827478D-02 -0.858803D-03 -0.566061D-02 -0.502798D-02
     24  0.669837D-02 -0.100058D-01 -0.185099D-01 -0.322338D-02 -0.261044D-01
     25  0.183487D-02  0.640975D-02 -0.516029D-03  0.105783D-05  0.000000D+00
     26 -0.286420D-02  0.166706D-02  0.465096D-05 -0.263565D-03 -0.492885D-02
     27  0.349241D-03 -0.475625D-02  0.000000D+00  0.928940D-03 -0.318539D-02
               16            17            18            19            20 
     16  0.605993D-01
     17  0.139078D-04  0.673363D-01
     18  0.207113D-04 -0.295480D-02  0.441717D-01
     19 -0.187866D-01 -0.629908D-02  0.175089D-01  0.576586D-01
     20 -0.873000D-02 -0.770770D-02  0.580441D-02 -0.193018D-01  0.712452D-01
     21  0.192726D-01  0.491460D-02 -0.144056D-01 -0.118204D-01  0.122976D-02
     22  0.115194D-02 -0.149402D-02  0.427341D-02 -0.525011D-02  0.380081D-02
     23  0.739360D-02 -0.670815D-02  0.392972D-02 -0.831152D-03 -0.401692D-02
     24  0.983761D-03  0.190174D-02 -0.241883D-02  0.192580D-02 -0.290630D-02
     25 -0.152306D-02  0.000000D+00  0.231303D-05 -0.189107D-01  0.145790D-01
     26  0.000000D+00  0.490851D-03  0.558881D-02  0.146311D-01 -0.837714D-02
     27  0.000000D+00 -0.109176D-02 -0.225004D-02 -0.131475D-01  0.677573D-02
               21            22            23            24            25 
     21  0.620518D-01
     22 -0.257824D-02  0.613650D-01
     23  0.126606D-02 -0.143638D-01  0.752080D-01
     24  0.334320D-02  0.145079D-01  0.208817D-02  0.504698D-01
     25 -0.156143D-01 -0.963530D-02  0.108125D-01  0.530728D-02  0.577082D-01
     26  0.675118D-02  0.139321D-01 -0.575836D-02 -0.935817D-02  0.155023D-04
     27 -0.158842D-01  0.663626D-02 -0.765693D-02 -0.126891D-01  0.282518D-05
               26            27 
     26  0.337892D-01
     27  0.127072D-02  0.720850D-01
 Leave Link  716 at Tue Mar  6 16:46:50 2018, MaxMem=   536870912 cpu:         0.1
 (Enter /share/apps//mg09/l103.exe)

 GradGradGradGradGradGradGradGradGradGradGradGradGradGradGradGradGradGrad
 Berny optimization.
 Search for a local minimum.
 Step number   1 out of a maximum of    2
 All quantities printed in internal units (Hartrees-Bohrs-Radians)
 Second derivative matrix not updated -- analytic derivatives used.
 ITU=  0
     Eigenvalues ---    0.00666   0.01867   0.03229   0.03806   0.04691
     Eigenvalues ---    0.04846   0.05459   0.05614   0.05919   0.06124
     Eigenvalues ---    0.06943   0.06974   0.08918   0.08966   0.09829
     Eigenvalues ---    0.10020   0.11554   0.11845   0.12870   0.13817
     Eigenvalues ---    0.14091
 Angle between quadratic step and forces=  41.29 degrees.
 Linear search not attempted -- first point.
 TrRot= -0.000013  0.000273  0.000086  0.000001 -0.000002  0.000001
 Variable       Old X    -DE/DX   Delta X   Delta X   Delta X     New X
                                 (Linear)    (Quad)   (Total)
    X1        2.97039   0.00009   0.00000   0.00725   0.00723   2.97762
    Y1        3.03724  -0.00013   0.00000  -0.00643  -0.00615   3.03109
    Z1       -1.06786   0.00002   0.00000   0.00361   0.00370  -1.06416
    X2       -3.70330   0.00007   0.00000   0.01126   0.01125  -3.69205
    Y2       -2.56901   0.00003   0.00000  -0.00543  -0.00516  -2.57418
    Z2       -1.42604   0.00000   0.00000  -0.00316  -0.00309  -1.42912
    X3        2.90922   0.00002   0.00000   0.00218   0.00216   2.91138
    Y3       -0.55622   0.00007   0.00000   0.00377   0.00405  -0.55217
    Z3        3.93415  -0.00001   0.00000  -0.00241  -0.00232   3.93184
    X4       -2.91395  -0.00001   0.00000  -0.00167  -0.00169  -2.91564
    Y4       -0.55539   0.00006   0.00000   0.00304   0.00331  -0.55209
    Z4        3.93048   0.00000   0.00000  -0.00184  -0.00176   3.92872
    X5       -0.00118  -0.00001   0.00000  -0.00052  -0.00055  -0.00173
    Y5        3.88722   0.00004   0.00000   0.00152   0.00180   3.88902
    Z5        3.30264  -0.00006   0.00000  -0.00357  -0.00348   3.29915
    X6       -0.00108   0.00000   0.00000  -0.00004  -0.00005  -0.00113
    Y6       -4.54130  -0.00010   0.00000  -0.00374  -0.00346  -4.54476
    Z6        1.90335   0.00003   0.00000   0.01091   0.01100   1.91435
    X7        3.70491  -0.00007   0.00000  -0.01146  -0.01147   3.69345
    Y7       -2.56874   0.00003   0.00000  -0.00586  -0.00558  -2.57433
    Z7       -1.42181  -0.00001   0.00000  -0.00345  -0.00335  -1.42516
    X8       -2.96956  -0.00008   0.00000  -0.00679  -0.00681  -2.97637
    Y8        3.03702  -0.00012   0.00000  -0.00609  -0.00582   3.03120
    Z8       -1.07016   0.00000   0.00000   0.00270   0.00278  -1.06739
    X9        0.00247   0.00000   0.00000  -0.00007  -0.00007   0.00240
    Y9       -0.16892   0.00013   0.00000   0.01675   0.01702  -0.15189
    Z9       -4.49808   0.00003   0.00000  -0.00356  -0.00348  -4.50155
         Item               Value     Threshold  Converged?
 Maximum Force            0.000129     0.000450     YES
 RMS     Force            0.000061     0.000300     YES
 Maximum Displacement     0.017024     0.001800     NO 
 RMS     Displacement     0.006153     0.001200     NO 
 Predicted change in Energy=-3.806257D-06
 GradGradGradGradGradGradGradGradGradGradGradGradGradGradGradGradGradGrad

 Leave Link  103 at Tue Mar  6 16:46:51 2018, MaxMem=   536870912 cpu:         0.1
 (Enter /share/apps//mg09/l9999.exe)
 1\1\GINC-COMPUTE-0-11\Freq\RPBE1PBE\def2TZVP\Bi4Ge3Sn2\RODRIGO\06-Mar-
 2018\0\\#P Geom=AllCheck Guess=TCheck SCRF=Check GenChk RPBE1PBE/def2T
 ZVP Freq\\01Final_coords.xyz_29\\0,1\Bi,1.5718616607,1.607237097,-0.56
 5087968\Bi,-1.9597002122,-1.3594640993,-0.7546266921\Sn,1.5394910346,-
 0.2943412559,2.0818632223\Sn,-1.5419958844,-0.2939016611,2.0799222505\
 Ge,-0.0006233336,2.0570271723,1.7476793837\Ge,-0.0005725064,-2.4031500
 236,1.0072083564\Bi,1.9605565118,-1.3593212786,-0.7523871216\Bi,-1.571
 4234854,1.6071236476,-0.5663067165\Ge,0.001309215,-0.0893875984,-2.380
 2797148\\Version=ES64L-G09RevD.01\State=1-A\HF=-7517.8192705\RMSD=7.10
 5e-09\RMSF=6.096e-05\ZeroPoint=0.0058543\Thermal=0.0232947\Dipole=0.00
 0061,0.3319825,-0.4056537\DipoleDeriv=0.1027747,-0.0319039,-0.0176865,
 -0.0196423,0.063742,-0.0374583,0.0178828,0.0053213,-0.0071241,0.055868
 1,0.0373289,0.1060569,-0.0276847,-0.0532045,0.0610819,-0.0051176,0.037
 4008,-0.1567623,0.1612537,0.0016861,0.210343,0.0249109,-0.0066592,-0.0
 418721,0.1202931,-0.0677297,0.1931463,0.1616441,-0.0016299,-0.210426,-
 0.0247868,-0.0067623,-0.0418779,-0.1204444,-0.0676403,0.1927769,-0.210
 5394,-0.0001038,-0.0000845,-0.0000455,0.0671556,0.1584888,-0.0000029,0
 .1698824,-0.0727138,-0.2638532,0.0000811,-0.0000588,-0.00002,0.024043,
 -0.0564619,-0.0000936,-0.1100325,-0.0817418,0.0558647,-0.0373559,-0.10
 58296,0.0276197,-0.0533592,0.0611049,0.0053394,0.0374004,-0.1569899,0.
 1027744,0.0318783,0.0178342,0.0196439,0.0637981,-0.03732,-0.0176634,0.
 0053959,-0.007233,-0.1657871,0.0000192,-0.0001486,0.0000048,-0.0987535
 ,-0.0656854,-0.0001935,-0.0099982,0.0966417\Polar=380.8869498,0.002096
 3,368.6464784,0.0040266,1.6398552,378.1369846\PG=C01 [X(Bi4Ge3Sn2)]\NI
 mag=0\\0.06139965,0.01436636,0.07521535,-0.01449481,0.00213755,0.05043
 422,-0.00525090,0.00083115,-0.00193624,0.05763077,-0.00379560,-0.00401
 748,-0.00290636,0.01929978,0.07124074,0.00256830,0.00126852,0.00334467
 ,0.01181673,0.00126658,0.06207604,-0.00021314,-0.00293416,-0.00057264,
 -0.00484860,0.00324592,-0.00237910,0.05400644,-0.00190550,-0.00461279,
 0.00666855,-0.00001435,-0.00101816,-0.00252915,-0.00546580,0.04834028,
 -0.00231355,0.00824439,-0.00997524,0.00078275,-0.00034356,-0.00406470,
 0.01466502,0.00800613,0.05652861,-0.00582779,0.00188686,0.00268613,-0.
 00119772,-0.00627668,-0.00410172,-0.02554098,-0.00017872,0.00244951,0.
 05403215,-0.00251602,0.00021919,0.00428529,-0.00425013,-0.00241907,-0.
 00952248,0.00019290,0.00302313,-0.00024483,0.00545931,0.04833173,0.000
 47367,0.00043484,-0.00481753,-0.00263021,-0.01135562,-0.02667115,-0.00
 248223,-0.00024637,-0.00159162,-0.01465741,0.00797823,0.05651973,-0.01
 238474,0.00086480,0.01852406,0.00038260,-0.00545737,-0.00121609,-0.007
 96678,0.01541396,-0.00222362,-0.00797677,-0.01542062,0.00221755,0.0460
 0429,0.00065257,-0.00565924,-0.00322706,0.00016689,-0.00235285,-0.0013
 3376,0.01254699,-0.02273715,-0.00083805,-0.01254929,-0.02272014,-0.000
 85437,-0.00000450,0.06488485,0.01857134,-0.00503058,-0.02608526,0.0015
 4901,-0.00225038,-0.00242548,-0.00368135,0.00280795,-0.00106095,0.0036
 7641,0.00278865,-0.00105563,-0.00001045,0.01234884,0.06341644,0.001158
 45,-0.00739788,-0.00097826,-0.01874651,0.00872107,-0.01927892,-0.00913
 333,-0.01278162,-0.00914422,-0.00914534,0.01277928,0.00912822,-0.00557
 490,0.00000252,-0.00000363,0.06059933,0.00149109,-0.00670852,0.0019031
 3,0.00629500,-0.00770572,0.00492079,-0.01007548,-0.01793638,-0.0055775
 5,0.01006860,-0.01792308,-0.00555250,-0.00000094,-0.00313762,0.0015363
 6,0.00001391,0.06733633,-0.00427065,0.00392118,-0.00242576,-0.01751614
 ,0.00580988,-0.01444883,-0.00785646,-0.00983309,-0.00358641,0.00784014
 ,-0.00980155,-0.00356013,-0.00000225,-0.00246456,-0.00107610,0.0000207
 1,-0.00295480,0.04417166,-0.00161146,0.00426139,0.00328457,-0.00742623
 ,0.00342977,0.00191357,-0.00120602,0.00425859,0.00266241,-0.00484848,0
 .00001718,-0.00078248,0.00038095,-0.00016596,-0.00154483,-0.01878658,-
 0.00629908,0.01750892,0.05765857,0.00458120,-0.04494922,0.00031595,-0.
 00343233,-0.00040857,0.00271601,0.00628856,-0.00241501,-0.01134553,-0.
 00324429,-0.00101693,-0.00034603,0.00545883,-0.00235369,-0.00224400,-0
 .00873000,-0.00770770,0.00580441,-0.01930182,0.07124517,0.00493046,-0.
 00350604,-0.00125467,-0.00192182,0.00272134,-0.00069837,0.00413307,-0.
 00950940,-0.02666736,0.00237806,-0.00253091,-0.00406167,0.00122059,-0.
 00133660,-0.00242319,0.01927257,0.00491460,-0.01440556,-0.01182042,0.0
 0122976,0.06205185,-0.02763999,-0.00106206,-0.00119921,-0.00160180,-0.
 00457676,-0.00493253,-0.00582417,0.00251073,-0.00047473,-0.00021698,0.
 00190322,0.00232314,-0.01234862,-0.00065028,-0.01855602,0.00115194,-0.
 00149402,0.00427341,-0.00525011,0.00380081,-0.00257824,0.06136504,0.00
 106296,-0.00371384,0.00021346,-0.00425474,-0.04494022,-0.00351953,-0.0
 0188852,0.00022072,0.00043224,0.00292794,-0.00463063,0.00827478,-0.000
 85880,-0.00566061,-0.00502798,0.00739360,-0.00670815,0.00392972,-0.000
 83115,-0.00401692,0.00126606,-0.01436377,0.07520800,0.00117610,0.00021
 276,0.00348943,-0.00328740,0.00029932,-0.00126416,-0.00268847,0.004287
 49,-0.00482016,0.00058494,0.00669837,-0.01000575,-0.01850993,-0.003223
 38,-0.02610444,0.00098376,0.00190174,-0.00241883,0.00192580,-0.0029063
 0,0.00334320,0.01450792,0.00208817,0.05046980,-0.00963006,-0.01081645,
 -0.00531360,-0.01894159,-0.01459012,0.01560976,0.00072658,-0.00183730,
 -0.00640357,0.00072191,0.00183487,0.00640975,-0.00051603,0.00000106,-0
 .00000047,-0.00152306,0.00000092,0.00000231,-0.01891065,0.01457903,-0.
 01561428,-0.00963530,0.01081248,0.00530728,0.05770821,-0.01393707,-0.0
 0577346,-0.00939052,-0.01464127,-0.00837868,0.00673302,-0.00191041,-0.
 00286465,0.00166675,0.00190627,-0.00286420,0.00166706,0.00000465,-0.00
 026356,-0.00492885,-0.00000089,0.00049085,0.00558881,0.01463108,-0.008
 37714,0.00675118,0.01393213,-0.00575836,-0.00935817,0.00001550,0.03378
 919,-0.00664086,-0.00768263,-0.01270986,0.01314332,0.00675880,-0.01584
 802,0.00086215,0.00034788,-0.00476216,-0.00085605,0.00034924,-0.004756
 25,0.00000013,0.00092894,-0.00318539,-0.00000024,-0.00109176,-0.002250
 04,-0.01314754,0.00677573,-0.01588423,0.00663626,-0.00765693,-0.012689
 08,0.00000283,0.00127072,0.07208504\\-0.00009166,0.00012914,-0.0000195
 9,-0.00006729,-0.00003362,0.00000437,-0.00002033,-0.00007141,0.0000105
 8,0.00001322,-0.00005553,-0.00000191,0.00000724,-0.00003517,0.00006106
 ,0.00000314,0.00010085,-0.00003138,0.00006626,-0.00002812,0.00000842,0
 .00008485,0.00012056,0.00000112,0.00000458,-0.00012670,-0.00003266\\\@


                                                                                    A
                                                                                  AA
                                                                                 AAA
                                                                                AAAA
                                                                               AAAAA
                                                                              AAAAAA   KKKKKKKK
                                                                             AAAAAAA   KKKKKKKK
                                                                            AAAAAAAA   KKKKKKKK
                                       ZZZZZZZZZZZZZZZZZZZZ                AAAA  AAA   KKKKKKKK
                                       ZZZZZZZZZZZZZZZZZZZ                AAAA   AAA   KKKKKKKK          K
                                       ZZZZZZZZZZZZZZZZZZ                AAAA    AAA   KKKKKKKK         KKK
                                       ZZZZZZZZZZZZZZZZZ                AAAA     AAA   KKKKKKKK        KKKKK
                                       ZZZZZZZZZZZZZZZZ                AAAA      AAA   KKKKKKKK       KKKKKKK
                                                ZZZZZZ                AAAA       AAA   KKKKKKKK      KKKKKKK
                                               ZZZZZZ                AAAA        AAA   KKKKKKKK     KKKKKKK
                                              ZZZZZZ                AAAA         AAA   KKKKKKKK    KKKKKKK
                                             ZZZZZZ                AAAA          AAA   KKKKKKKK   KKKKKKK
                                            ZZZZZZ                AAAAAAAAAAAAAAAAAA   KKKKKKKK  KKKKKKK
                                           ZZZZZZ                AAAAAAAAAAAAAAAAAAA   KKKKKKKK KKKKKKK
                                          ZZZZZZ                AAAAAAAAAAAAAAAAAAAA   KKKKKKKKKKKKKKK
                                         ZZZZZZ                AAAAAAAAAAAAAAAAAAAAA   KKKKKKKKKKKKKK
                                        ZZZZZZ                AAAAAA        AAAAAAAA   KKKKKKKKKKKKK
                                       ZZZZZZ                AAAAAA         AAAAAAAA   KKKKKKKKKKKK
                                      ZZZZZZ                AAAAAA          AAAAAAAA   KKKKKKKKKKK
                                     ZZZZZZ                AAAAAA           AAAAAAAA   KKKKKKKKKKKK
                                    ZZZZZZ                AAAAAA            AAAAAAAA   KKKKKKKKKKKKK
                                   ZZZZZZ                AAAAAA             AAAAAAAA   KKKKKKKKKKKKKK
                                  ZZZZZZ                AAAAAA              AAAAAAAA   KKKKKKKKKKKKKKK
                                 ZZZZZZ                AAAAAA               AAAAAAAA   KKKKK KKKKKKKKKK
                                ZZZZZZ                AAAAAA                AAAAAAAA   KKKKK  KKKKKKKKKK
                               ZZZZZZ                AAAAAA                            KKKKK   KKKKKKKKKK
                              ZZZZZZ                AAAAAA                             KKKKK    KKKKKKKKKK
                             ZZZZZZ                                                    KKKKK     KKKKKKKKKK
                            ZZZZZZ                                                     KKKKK      KKKKKKKKKK
                           ZZZZZZ                                                      KKKKK       KKKKKKKKKK
                          ZZZZZZ                                                       KKKKK        KKKKKKKKKK
                         ZZZZZZZZZZZZZZZZZZZZZZZZZZZZZZZZZZZZZZZZ                      KKKKK         KKKKKKKKKK
                        ZZZZZZZZZZZZZZZZZZZZZZZZZZZZZZZZZZZZZZZZZ                      KKKKK          KKKKKKKKKK
                       ZZZZZZZZZZZZZZZZZZZZZZZZZZZZZZZZZZZZZZZZZZ                      KKKKK           KKKKKKKKKK
                       ZZZZZZZZZZZZZZZZZZZZZZZZZZZZZZZZZZZZZZZZZZ                      KKKKK            KKKKKKKKKK
                       ZZZZZZZZZZZZZZZZZZZZZZZZZZZZZZZZZZZZZZZZZZ                      KKKKK             KKKKKKKKKK
                       ZZZZZZZZZZZZZZZZZZZZZZZZZZZZZZZZZZZZZZZZZZ                      KKKKK              KKKKKKKKKK
                       ZZZZZZZZZZZZZZZZZZZZZZZZZZZZZZZZZZZZZZZZZZ                      KKKKK               KKKKKKKKKK
                       ZZZZZZZZZZZZZZZZZZZZZZZZZZZZZZZZZZZZZZZZZZ                      KKKKK                KKKKKKKKKK
                       ZZZZZZZZZZZZZZZZZZZZZZZZZZZZZZZZZZZZZZZZZZ                      KKKKK
                                                                                       KKKKK
                                                                                          (J.P.)
 Job cpu time:       0 days  7 hours 46 minutes 24.2 seconds.
 File lengths (MBytes):  RWF=    299 Int=      0 D2E=      0 Chk=     16 Scr=      1
 Normal termination of Gaussian 09 at Tue Mar  6 16:46:53 2018.
