 Entering Gaussian System, Link 0=/share/apps/mg09/g09
 Initial command:
 /share/apps//mg09/l1.exe "/state/partition1/gauss_tmp/Gau-488.inp" -scrdir="/state/partition1/gauss_tmp/"
 Entering Link 1 = /share/apps//mg09/l1.exe PID=       495.
  
 Copyright (c) 1988,1990,1992,1993,1995,1998,2003,2009,2013,
            Gaussian, Inc.  All Rights Reserved.
  
 This is part of the Gaussian(R) 09 program.  It is based on
 the Gaussian(R) 03 system (copyright 2003, Gaussian, Inc.),
 the Gaussian(R) 98 system (copyright 1998, Gaussian, Inc.),
 the Gaussian(R) 94 system (copyright 1995, Gaussian, Inc.),
 the Gaussian 92(TM) system (copyright 1992, Gaussian, Inc.),
 the Gaussian 90(TM) system (copyright 1990, Gaussian, Inc.),
 the Gaussian 88(TM) system (copyright 1988, Gaussian, Inc.),
 the Gaussian 86(TM) system (copyright 1986, Carnegie Mellon
 University), and the Gaussian 82(TM) system (copyright 1983,
 Carnegie Mellon University). Gaussian is a federally registered
 trademark of Gaussian, Inc.
  
 This software contains proprietary and confidential information,
 including trade secrets, belonging to Gaussian, Inc.
  
 This software is provided under written license and may be
 used, copied, transmitted, or stored only in accord with that
 written license.
  
 The following legend is applicable only to US Government
 contracts under FAR:
  
                    RESTRICTED RIGHTS LEGEND
  
 Use, reproduction and disclosure by the US Government is
 subject to restrictions as set forth in subparagraphs (a)
 and (c) of the Commercial Computer Software - Restricted
 Rights clause in FAR 52.227-19.
  
 Gaussian, Inc.
 340 Quinnipiac St., Bldg. 40, Wallingford CT 06492
  
  
 ---------------------------------------------------------------
 Warning -- This program may not be used in any manner that
 competes with the business of Gaussian, Inc. or will provide
 assistance to any competitor of Gaussian, Inc.  The licensee
 of this program is prohibited from giving any competitor of
 Gaussian, Inc. access to this program.  By using this program,
 the user acknowledges that Gaussian, Inc. is engaged in the
 business of creating and licensing software in the field of
 computational chemistry and represents and warrants to the
 licensee that it is not a competitor of Gaussian, Inc. and that
 it will not use this program in any manner prohibited above.
 ---------------------------------------------------------------
  

 Cite this work as:
 Gaussian 09, Revision D.01,
 M. J. Frisch, G. W. Trucks, H. B. Schlegel, G. E. Scuseria, 
 M. A. Robb, J. R. Cheeseman, G. Scalmani, V. Barone, B. Mennucci, 
 G. A. Petersson, H. Nakatsuji, M. Caricato, X. Li, H. P. Hratchian, 
 A. F. Izmaylov, J. Bloino, G. Zheng, J. L. Sonnenberg, M. Hada, 
 M. Ehara, K. Toyota, R. Fukuda, J. Hasegawa, M. Ishida, T. Nakajima, 
 Y. Honda, O. Kitao, H. Nakai, T. Vreven, J. A. Montgomery, Jr., 
 J. E. Peralta, F. Ogliaro, M. Bearpark, J. J. Heyd, E. Brothers, 
 K. N. Kudin, V. N. Staroverov, T. Keith, R. Kobayashi, J. Normand, 
 K. Raghavachari, A. Rendell, J. C. Burant, S. S. Iyengar, J. Tomasi, 
 M. Cossi, N. Rega, J. M. Millam, M. Klene, J. E. Knox, J. B. Cross, 
 V. Bakken, C. Adamo, J. Jaramillo, R. Gomperts, R. E. Stratmann, 
 O. Yazyev, A. J. Austin, R. Cammi, C. Pomelli, J. W. Ochterski, 
 R. L. Martin, K. Morokuma, V. G. Zakrzewski, G. A. Voth, 
 P. Salvador, J. J. Dannenberg, S. Dapprich, A. D. Daniels, 
 O. Farkas, J. B. Foresman, J. V. Ortiz, J. Cioslowski, 
 and D. J. Fox, Gaussian, Inc., Wallingford CT, 2013.
 
 ******************************************
 Gaussian 09:  ES64L-G09RevD.01 24-Apr-2013
                 6-Mar-2018 
 ******************************************
 %NProcShared=4
 Will use up to    4 processors via shared memory.
 %LindaWorkers=compute-0-5
 %chk=Isomer_14.chk
 %NProc=4
 Will use up to    4 processors via shared memory.
 %mem=4GB
 SetLPE:  input flags=" -vv -opt "Tsnet.Node.lindarsharg: ssh" "
 SetLPE:    new flags=" -vv -opt "Tsnet.Node.lindarsharg: ssh"  -nodelist 'compute-0-5.local'"
 Will use up to    1 processors via Linda.
 ----------------------------------------------------------------------
 #p PBE1PBE/Def2TZVP scf=(maxcycle=768) opt=(cartesian,maxcycle=512) fr
 eq
 ----------------------------------------------------------------------
 1/6=512,10=7,14=-1,18=10,26=3,38=1/1,3;
 2/12=2,17=6,18=5,29=2,40=1/2;
 3/5=44,7=101,11=2,16=1,25=1,30=1,71=1,74=-13/1,2,3;
 4//1;
 5/5=2,7=768,38=5/2;
 6/7=2,8=2,9=2,10=2,28=1/1;
 7/7=1,29=1/1,2,3,16;
 1/6=512,10=7,14=-1,18=10,26=3/3(2);
 2/29=1/2;
 99/12=1/99;
 2/29=1/2;
 3/5=44,7=101,11=2,16=1,25=1,30=1,71=1,74=-13/1,2,3;
 4/5=5,16=3,69=1/1;
 5/5=2,7=768,38=5/2;
 7/7=1/1,2,3,16;
 1/6=512,14=-1,18=10,26=3/3(-5);
 2/29=1/2;
 6/7=2,8=2,9=2,10=2,19=2,28=1/1;
 99/9=1,12=1/99;
 Leave Link    1 at Tue Mar  6 11:56:29 2018, MaxMem=   536870912 cpu:         0.5
 (Enter /share/apps//mg09/l101.exe)
 ---------------------
 01Final_coords.xyz_14
 ---------------------
 Symbolic Z-matrix:
 Charge =  0 Multiplicity = 1
 83                   -2.3893   -0.80299   0.10618 
 32                   -0.71307  -2.29259   1.83955 
 32                   -0.52587   0.40216   2.40362 
 32                   -0.05747  -2.42193  -0.89123 
 50                    1.93662  -1.40989   1.36355 
 83                    1.94776  -0.39813  -1.52628 
 50                   -0.91131   0.11884  -2.43233 
 83                    1.59811   1.60321   0.78577 
 83                   -1.2744    2.03825  -0.01413 
 
 NAtoms=      9 NQM=        9 NQMF=       0 NMMI=      0 NMMIF=      0
                NMic=       0 NMicF=      0.
                    Isotopes and Nuclear Properties:
 (Nuclear quadrupole moments (NQMom) in fm**2, nuclear magnetic moments (NMagM)
  in nuclear magnetons)

  Atom         1           2           3           4           5           6           7           8           9
 IAtWgt=         209          74          74          74         118         209         118         209         209
 AtmWgt= 208.9804000  73.9211788  73.9211788  73.9211788 117.9018000 208.9804000 117.9018000 208.9804000 208.9804000
 NucSpn=           9           0           0           0           0           9           0           9           9
 AtZEff=   0.0000000   0.0000000   0.0000000   0.0000000   0.0000000   0.0000000   0.0000000   0.0000000   0.0000000
 NQMom=  -51.6000000   0.0000000   0.0000000   0.0000000   0.0000000 -51.6000000   0.0000000 -51.6000000 -51.6000000
 NMagM=    4.1106000   0.0000000   0.0000000   0.0000000   0.0000000   4.1106000   0.0000000   4.1106000   4.1106000
 AtZNuc=  83.0000000  32.0000000  32.0000000  32.0000000  50.0000000  83.0000000  50.0000000  83.0000000  83.0000000
 Leave Link  101 at Tue Mar  6 11:56:42 2018, MaxMem=   536870912 cpu:         0.3
 (Enter /share/apps//mg09/l103.exe)

 GradGradGradGradGradGradGradGradGradGradGradGradGradGradGradGradGradGrad
 Berny optimization.
 Initialization pass.
 No Z-matrix variables, so optimization will use Cartesian coordinates.
 Trust Radius=3.00D-01 FncErr=1.00D-07 GrdErr=1.00D-06
 Number of steps in this run=    100 maximum allowed number of steps=    100.
 GradGradGradGradGradGradGradGradGradGradGradGradGradGradGradGradGradGrad

 Leave Link  103 at Tue Mar  6 11:57:12 2018, MaxMem=   536870912 cpu:         0.1
 (Enter /share/apps//mg09/l202.exe)
 ---------------------------------------------------------------------------------------------------
                            Z-MATRIX (ANGSTROMS AND DEGREES)
   CD    Cent   Atom    N1       Length/X        N2       Alpha/Y        N3        Beta/Z          J
 ---------------------------------------------------------------------------------------------------
      1      1  Bi       0  -2.389303         -0.802988          0.106178
      2      2  Ge       0  -0.713066         -2.292594          1.839547
      3      3  Ge       0  -0.525874          0.402159          2.403617
      4      4  Ge       0  -0.057465         -2.421925         -0.891226
      5      5  Sn       0   1.936619         -1.409892          1.363545
      6      6  Bi       0   1.947759         -0.398125         -1.526279
      7      7  Sn       0  -0.911305          0.118842         -2.432331
      8      8  Bi       0   1.598109          1.603206          0.785768
      9      9  Bi       0  -1.274404          2.038246         -0.014134
 ---------------------------------------------------------------------------------------------------
                         Z-Matrix orientation:                         
 ---------------------------------------------------------------------
 Center     Atomic      Atomic             Coordinates (Angstroms)
 Number     Number       Type             X           Y           Z
 ---------------------------------------------------------------------
      1         83           0       -2.389303   -0.802988    0.106178
      2         32           0       -0.713066   -2.292594    1.839547
      3         32           0       -0.525874    0.402159    2.403617
      4         32           0       -0.057465   -2.421925   -0.891226
      5         50           0        1.936619   -1.409892    1.363545
      6         83           0        1.947759   -0.398125   -1.526279
      7         50           0       -0.911305    0.118842   -2.432331
      8         83           0        1.598109    1.603206    0.785768
      9         83           0       -1.274404    2.038246   -0.014134
 ---------------------------------------------------------------------
                    Distance matrix (angstroms):
                    1          2          3          4          5
     1  Bi   0.000000
     2  Ge   2.834301   0.000000
     3  Ge   3.194209   2.759513   0.000000
     4  Ge   3.008860   2.811345   4.364728   0.000000
     5  Sn   4.545647   2.833120   3.229420   3.175622   0.000000
     6  Bi   4.651767   4.690180   4.712048   2.918901   3.061842
     7  Sn   3.078681   4.909508   4.859549   3.091851   4.985617
     8  Bi   4.706492   4.650724   2.927670   4.664216   3.086612
     9  Bi   3.054519   4.744197   3.013735   4.705673   4.909004
                    6          7          8          9
     6  Bi   0.000000
     7  Sn   3.043424   0.000000
     8  Bi   3.077847   4.342425   0.000000
     9  Bi   4.313331   3.108638   3.013376   0.000000
 Stoichiometry    Bi4Ge3Sn2
 Framework group  C1[X(Bi4Ge3Sn2)]
 Deg. of freedom    21
 Full point group                 C1      NOp   1
 Largest Abelian subgroup         C1      NOp   1
 Largest concise Abelian subgroup C1      NOp   1
                         Standard orientation:                         
 ---------------------------------------------------------------------
 Center     Atomic      Atomic             Coordinates (Angstroms)
 Number     Number       Type             X           Y           Z
 ---------------------------------------------------------------------
      1         83           0        2.389303   -0.802989   -0.106178
      2         32           0        0.713065   -2.292594   -1.839547
      3         32           0        0.525874    0.402159   -2.403617
      4         32           0        0.057464   -2.421925    0.891226
      5         50           0       -1.936619   -1.409892   -1.363545
      6         83           0       -1.947759   -0.398125    1.526279
      7         50           0        0.911305    0.118841    2.432331
      8         83           0       -1.598108    1.603206   -0.785768
      9         83           0        1.274405    2.038245    0.014134
 ---------------------------------------------------------------------
 Rotational constants (GHZ):      0.1028793      0.0882519      0.0828265
 Leave Link  202 at Tue Mar  6 11:57:17 2018, MaxMem=   536870912 cpu:         0.0
 (Enter /share/apps//mg09/l301.exe)
 Standard basis: def2TZVP (5D, 7F)
 Ernie: Thresh=  0.10000D-02 Tol=  0.10000D-05 Strict=F.
 There are   519 symmetry adapted cartesian basis functions of A   symmetry.
 There are   444 symmetry adapted basis functions of A   symmetry.
   444 basis functions,   963 primitive gaussians,   519 cartesian basis functions
   116 alpha electrons      116 beta electrons
       nuclear repulsion energy      3554.5823432487 Hartrees.
 IExCor= 1009 DFT=T Ex+Corr=PBE1PBE ExCW=0 ScaHFX=  0.250000
 ScaDFX=  0.750000  0.750000  1.000000  1.000000 ScalE2=  1.000000  1.000000
 IRadAn=      0 IRanWt=     -1 IRanGd=            0 ICorTp=0 IEmpDi=  4
 NAtoms=    9 NActive=    9 NUniq=    9 SFac= 1.00D+00 NAtFMM=   60 NAOKFM=F Big=F
 Integral buffers will be    131072 words long.
 Raffenetti 2 integral format.
 Two-electron integral symmetry is turned on.
 Leave Link  301 at Tue Mar  6 11:57:27 2018, MaxMem=   536870912 cpu:         0.3
 (Enter /share/apps//mg09/l302.exe)
 NPDir=0 NMtPBC=     1 NCelOv=     1 NCel=       1 NClECP=     1 NCelD=      1
         NCelK=      1 NCelE2=     1 NClLst=     1 CellRange=     0.0.
 One-electron integrals computed using PRISM.
   1 Symmetry operations used in ECPInt.
 ECPInt:  NShTT=   10440 NPrTT=   41973 LenC2=    9672 LenP2D=   27422.
 LDataN:  DoStor=T MaxTD1= 8 Len=  415
 NBasis=   444 RedAO= T EigKep=  1.50D-03  NBF=   444
 NBsUse=   444 1.00D-06 EigRej= -1.00D+00 NBFU=   444
 Precomputing XC quadrature grid using
 IXCGrd= 4 IRadAn=           0 IRanWt=          -1 IRanGd=           0 AccXCQ= 0.00D+00.
 Defaulting to unpruned grid for atomic number  83.
 Defaulting to unpruned grid for atomic number  50.
 Defaulting to unpruned grid for atomic number  50.
 Generated NRdTot=       0 NPtTot=           0 NUsed=           0 NTot=          32
 NSgBfM=   508   508   508   508   508 MxSgAt=     9 MxSgA2=     9.
 Leave Link  302 at Tue Mar  6 11:57:37 2018, MaxMem=   536870912 cpu:        25.5
 (Enter /share/apps//mg09/l303.exe)
 DipDrv:  MaxL=1.
 Leave Link  303 at Tue Mar  6 11:57:48 2018, MaxMem=   536870912 cpu:         0.3
 (Enter /share/apps//mg09/l401.exe)
 ExpMin= 4.62D-02 ExpMax= 4.66D+05 ExpMxC= 4.50D+03 IAcc=2 IRadAn=         4 AccDes= 0.00D+00
 Harris functional with IExCor= 1009 and IRadAn=       4 diagonalized for initial guess.
 HarFok:  IExCor= 1009 AccDes= 0.00D+00 IRadAn=         4 IDoV= 1 UseB2=F ITyADJ=14
 ICtDFT=  3500011 ScaDFX=  1.000000  1.000000  1.000000  1.000000
 Defaulting to unpruned grid for atomic number  83.
 Defaulting to unpruned grid for atomic number  83.
 Defaulting to unpruned grid for atomic number  83.
 Defaulting to unpruned grid for atomic number  83.
 FoFCou: FMM=F IPFlag=           0 FMFlag=      100000 FMFlg1=           0
         NFxFlg=           0 DoJE=T BraDBF=F KetDBF=T FulRan=T
         wScrn=  0.000000 ICntrl=     500 IOpCl=  0 I1Cent=   200000004 NGrid=           0
         NMat0=    1 NMatS0=      1 NMatT0=    0 NMatD0=    1 NMtDS0=    0 NMtDT0=    0
 Petite list used in FoFCou.
 Harris En= -7518.61073064675    
 JPrj=0 DoOrth=F DoCkMO=F.
 Leave Link  401 at Tue Mar  6 11:57:58 2018, MaxMem=   536870912 cpu:         9.9
 (Enter /share/apps//mg09/l502.exe)
 Closed shell SCF:
 Using DIIS extrapolation, IDIIS=  1040.
 Integral symmetry usage will be decided dynamically.
 IVT=     1410107 IEndB=     1410107 NGot=   536870912 MDV=   536322046
 LenX=   536322046 LenY=   536052166
 Requested convergence on RMS density matrix=1.00D-08 within 768 cycles.
 Requested convergence on MAX density matrix=1.00D-06.
 Requested convergence on             energy=1.00D-06.
 No special actions if energy rises.
 Fock matrices will be formed incrementally for  20 cycles.

 Cycle   1  Pass 1  IDiag  1:
 FoFJK:  IHMeth= 1 ICntrl=       0 DoSepK=F KAlg= 0 I1Cent=   0 FoldK=F
 IRaf= 880000000 NMat=   1 IRICut=       1 DoRegI=T DoRafI=F ISym2E= 0.
 FoFCou: FMM=F IPFlag=           0 FMFlag=      100000 FMFlg1=           0
         NFxFlg=           0 DoJE=F BraDBF=F KetDBF=F FulRan=T
         wScrn=  0.000000 ICntrl=       0 IOpCl=  0 I1Cent=           0 NGrid=           0
         NMat0=    1 NMatS0=      1 NMatT0=    0 NMatD0=    1 NMtDS0=    0 NMtDT0=    0
 Symmetry not used in FoFCou.
 Defaulting to unpruned grid for atomic number  83.
 Defaulting to unpruned grid for atomic number  83.
 Defaulting to unpruned grid for atomic number  83.
 Defaulting to unpruned grid for atomic number  83.
 E= -7517.23247836393    
 DIIS: error= 3.76D-02 at cycle   1 NSaved=   1.
 NSaved= 1 IEnMin= 1 EnMin= -7517.23247836393     IErMin= 1 ErrMin= 3.76D-02
 ErrMax= 3.76D-02  0.00D+00 EMaxC= 1.00D-01 BMatC= 1.47D+00 BMatP= 1.47D+00
 IDIUse=3 WtCom= 6.24D-01 WtEn= 3.76D-01
 Coeff-Com:  0.100D+01
 Coeff-En:   0.100D+01
 Coeff:      0.100D+01
 Gap=     0.131 Goal=   None    Shift=    0.000
 GapD=    0.131 DampG=1.000 DampE=0.500 DampFc=0.5000 IDamp=-1.
 Damping current iteration by 5.00D-01
 RMSDP=5.47D-03 MaxDP=2.37D-01              OVMax= 7.26D-01

 Cycle   2  Pass 1  IDiag  1:
 RMSU=  2.73D-03    CP:  1.01D+00
 E= -7517.04353964471     Delta-E=        0.188938719224 Rises=F Damp=T
 DIIS: error= 1.52D-02 at cycle   2 NSaved=   2.
 NSaved= 2 IEnMin= 1 EnMin= -7517.23247836393     IErMin= 2 ErrMin= 1.52D-02
 ErrMax= 1.52D-02  0.00D+00 EMaxC= 1.00D-01 BMatC= 3.02D-01 BMatP= 1.47D+00
 IDIUse=3 WtCom= 8.48D-01 WtEn= 1.52D-01
 Coeff-Com:  0.160D+00 0.840D+00
 Coeff-En:   0.600D+00 0.400D+00
 Coeff:      0.227D+00 0.773D+00
 Gap=     0.091 Goal=   None    Shift=    0.000
 RMSDP=4.03D-03 MaxDP=1.73D-01 DE= 1.89D-01 OVMax= 6.87D-01

 Cycle   3  Pass 1  IDiag  1:
 RMSU=  3.24D-03    CP:  1.00D+00  1.27D-01
 E= -7515.46364640024     Delta-E=        1.579893244474 Rises=F Damp=F
 DIIS: error= 4.66D-02 at cycle   3 NSaved=   3.
 NSaved= 3 IEnMin= 1 EnMin= -7517.23247836393     IErMin= 2 ErrMin= 1.52D-02
 ErrMax= 4.66D-02  0.00D+00 EMaxC= 1.00D-01 BMatC= 1.81D+00 BMatP= 3.02D-01
 IDIUse=2 WtCom= 0.00D+00 WtEn= 1.00D+00
 EnCoef did    12 forward-backward iterations
 Coeff-En:   0.507D+00 0.436D+00 0.567D-01
 Coeff:      0.507D+00 0.436D+00 0.567D-01
 Gap=     0.150 Goal=   None    Shift=    0.000
 RMSDP=3.40D-03 MaxDP=1.14D-01 DE= 1.58D+00 OVMax= 4.03D-01

 Cycle   4  Pass 1  IDiag  1:
 RMSU=  1.49D-03    CP:  1.01D+00  8.31D-01  2.68D-01
 E= -7517.70797355616     Delta-E=       -2.244327155928 Rises=F Damp=F
 DIIS: error= 1.14D-02 at cycle   4 NSaved=   4.
 NSaved= 4 IEnMin= 4 EnMin= -7517.70797355616     IErMin= 4 ErrMin= 1.14D-02
 ErrMax= 1.14D-02  0.00D+00 EMaxC= 1.00D-01 BMatC= 2.56D-01 BMatP= 3.02D-01
 IDIUse=3 WtCom= 8.86D-01 WtEn= 1.14D-01
 Coeff-Com:  0.329D+00-0.929D-01-0.694D-01 0.833D+00
 Coeff-En:   0.111D+00 0.000D+00 0.000D+00 0.889D+00
 Coeff:      0.304D+00-0.823D-01-0.615D-01 0.839D+00
 Gap=     0.120 Goal=   None    Shift=    0.000
 RMSDP=1.22D-03 MaxDP=6.36D-02 DE=-2.24D+00 OVMax= 8.59D-02

 Cycle   5  Pass 1  IDiag  1:
 RMSU=  6.13D-04    CP:  1.00D+00  6.10D-01  4.94D-02  6.78D-01
 E= -7517.77248538172     Delta-E=       -0.064511825560 Rises=F Damp=F
 DIIS: error= 5.25D-03 at cycle   5 NSaved=   5.
 NSaved= 5 IEnMin= 5 EnMin= -7517.77248538172     IErMin= 5 ErrMin= 5.25D-03
 ErrMax= 5.25D-03  0.00D+00 EMaxC= 1.00D-01 BMatC= 4.85D-02 BMatP= 2.56D-01
 IDIUse=3 WtCom= 9.47D-01 WtEn= 5.25D-02
 Coeff-Com:  0.134D+00-0.799D-01-0.536D-02 0.443D+00 0.508D+00
 Coeff-En:   0.000D+00 0.000D+00 0.000D+00 0.259D+00 0.741D+00
 Coeff:      0.127D+00-0.757D-01-0.508D-02 0.433D+00 0.520D+00
 Gap=     0.127 Goal=   None    Shift=    0.000
 RMSDP=6.81D-04 MaxDP=3.99D-02 DE=-6.45D-02 OVMax= 6.64D-02

 Cycle   6  Pass 1  IDiag  1:
 RMSU=  3.81D-04    CP:  1.00D+00  5.76D-01  1.46D-01  7.67D-01  2.99D-01
 E= -7517.80674218306     Delta-E=       -0.034256801331 Rises=F Damp=F
 DIIS: error= 2.99D-03 at cycle   6 NSaved=   6.
 NSaved= 6 IEnMin= 6 EnMin= -7517.80674218306     IErMin= 6 ErrMin= 2.99D-03
 ErrMax= 2.99D-03  0.00D+00 EMaxC= 1.00D-01 BMatC= 1.08D-02 BMatP= 4.85D-02
 IDIUse=3 WtCom= 9.70D-01 WtEn= 2.99D-02
 Coeff-Com:  0.396D-01-0.542D-01 0.398D-02 0.182D+00 0.372D+00 0.456D+00
 Coeff-En:   0.000D+00 0.000D+00 0.000D+00 0.000D+00 0.227D+00 0.773D+00
 Coeff:      0.384D-01-0.526D-01 0.386D-02 0.177D+00 0.368D+00 0.466D+00
 Gap=     0.123 Goal=   None    Shift=    0.000
 RMSDP=3.13D-04 MaxDP=1.77D-02 DE=-3.43D-02 OVMax= 3.02D-02

 Cycle   7  Pass 1  IDiag  1:
 RMSU=  1.48D-04    CP:  1.00D+00  5.83D-01  1.25D-01  7.44D-01  5.58D-01
                    CP:  4.60D-01
 E= -7517.81461060784     Delta-E=       -0.007868424789 Rises=F Damp=F
 DIIS: error= 1.23D-03 at cycle   7 NSaved=   7.
 NSaved= 7 IEnMin= 7 EnMin= -7517.81461060784     IErMin= 7 ErrMin= 1.23D-03
 ErrMax= 1.23D-03  0.00D+00 EMaxC= 1.00D-01 BMatC= 1.69D-03 BMatP= 1.08D-02
 IDIUse=3 WtCom= 9.88D-01 WtEn= 1.23D-02
 Coeff-Com:  0.217D-01-0.386D-01 0.234D-02 0.102D+00 0.220D+00 0.339D+00
 Coeff-Com:  0.354D+00
 Coeff-En:   0.000D+00 0.000D+00 0.000D+00 0.000D+00 0.000D+00 0.213D+00
 Coeff-En:   0.787D+00
 Coeff:      0.215D-01-0.381D-01 0.231D-02 0.101D+00 0.217D+00 0.338D+00
 Coeff:      0.359D+00
 Gap=     0.123 Goal=   None    Shift=    0.000
 RMSDP=1.36D-04 MaxDP=5.70D-03 DE=-7.87D-03 OVMax= 1.44D-02

 Cycle   8  Pass 1  IDiag  1:
 RMSU=  5.29D-05    CP:  1.00D+00  5.84D-01  1.27D-01  7.49D-01  5.22D-01
                    CP:  5.70D-01  2.20D-01
 E= -7517.81639319341     Delta-E=       -0.001782585567 Rises=F Damp=F
 DIIS: error= 4.68D-04 at cycle   8 NSaved=   8.
 NSaved= 8 IEnMin= 8 EnMin= -7517.81639319341     IErMin= 8 ErrMin= 4.68D-04
 ErrMax= 4.68D-04  0.00D+00 EMaxC= 1.00D-01 BMatC= 3.37D-04 BMatP= 1.69D-03
 IDIUse=3 WtCom= 9.95D-01 WtEn= 4.68D-03
 Coeff-Com:  0.963D-02-0.189D-01 0.218D-02 0.392D-01 0.784D-01 0.162D+00
 Coeff-Com:  0.291D+00 0.437D+00
 Coeff-En:   0.000D+00 0.000D+00 0.000D+00 0.000D+00 0.000D+00 0.000D+00
 Coeff-En:   0.185D+00 0.815D+00
 Coeff:      0.958D-02-0.188D-01 0.217D-02 0.390D-01 0.780D-01 0.161D+00
 Coeff:      0.290D+00 0.439D+00
 Gap=     0.123 Goal=   None    Shift=    0.000
 RMSDP=4.74D-05 MaxDP=1.80D-03 DE=-1.78D-03 OVMax= 5.49D-03

 Cycle   9  Pass 1  IDiag  1:
 RMSU=  1.90D-05    CP:  1.00D+00  5.82D-01  1.33D-01  7.51D-01  5.19D-01
                    CP:  5.51D-01  4.35D-01  6.25D-01
 E= -7517.81681410407     Delta-E=       -0.000420910656 Rises=F Damp=F
 DIIS: error= 1.13D-04 at cycle   9 NSaved=   9.
 NSaved= 9 IEnMin= 9 EnMin= -7517.81681410407     IErMin= 9 ErrMin= 1.13D-04
 ErrMax= 1.13D-04  0.00D+00 EMaxC= 1.00D-01 BMatC= 1.05D-05 BMatP= 3.37D-04
 IDIUse=3 WtCom= 9.99D-01 WtEn= 1.13D-03
 Coeff-Com:  0.231D-02-0.484D-02 0.499D-03 0.496D-02 0.161D-02 0.242D-01
 Coeff-Com:  0.719D-01 0.174D+00 0.726D+00
 Coeff-En:   0.000D+00 0.000D+00 0.000D+00 0.000D+00 0.000D+00 0.000D+00
 Coeff-En:   0.000D+00 0.000D+00 0.100D+01
 Coeff:      0.231D-02-0.484D-02 0.498D-03 0.495D-02 0.160D-02 0.241D-01
 Coeff:      0.718D-01 0.173D+00 0.726D+00
 Gap=     0.123 Goal=   None    Shift=    0.000
 RMSDP=1.58D-05 MaxDP=7.64D-04 DE=-4.21D-04 OVMax= 1.73D-03

 Cycle  10  Pass 1  IDiag  1:
 RMSU=  1.28D-05    CP:  1.00D+00  5.80D-01  1.34D-01  7.51D-01  5.13D-01
                    CP:  5.59D-01  4.41D-01  6.87D-01  7.01D-01
 E= -7517.81681455110     Delta-E=       -0.000000447037 Rises=F Damp=F
 DIIS: error= 7.79D-05 at cycle  10 NSaved=  10.
 NSaved=10 IEnMin=10 EnMin= -7517.81681455110     IErMin=10 ErrMin= 7.79D-05
 ErrMax= 7.79D-05  0.00D+00 EMaxC= 1.00D-01 BMatC= 9.29D-06 BMatP= 1.05D-05
 IDIUse=1 WtCom= 1.00D+00 WtEn= 0.00D+00
 Coeff-Com:  0.410D-03-0.101D-02 0.243D-03-0.177D-02-0.995D-02-0.435D-02
 Coeff-Com:  0.142D-01 0.713D-01 0.585D+00 0.346D+00
 Coeff:      0.410D-03-0.101D-02 0.243D-03-0.177D-02-0.995D-02-0.435D-02
 Coeff:      0.142D-01 0.713D-01 0.585D+00 0.346D+00
 Gap=     0.123 Goal=   None    Shift=    0.000
 RMSDP=1.01D-05 MaxDP=5.50D-04 DE=-4.47D-07 OVMax= 1.20D-03

 Cycle  11  Pass 1  IDiag  1:
 RMSU=  4.63D-06    CP:  1.00D+00  5.80D-01  1.34D-01  7.50D-01  5.13D-01
                    CP:  5.61D-01  4.35D-01  6.76D-01  8.95D-01  3.74D-01
 E= -7517.81682588876     Delta-E=       -0.000011337657 Rises=F Damp=F
 DIIS: error= 3.03D-05 at cycle  11 NSaved=  11.
 NSaved=11 IEnMin=11 EnMin= -7517.81682588876     IErMin=11 ErrMin= 3.03D-05
 ErrMax= 3.03D-05  0.00D+00 EMaxC= 1.00D-01 BMatC= 1.04D-06 BMatP= 9.29D-06
 IDIUse=1 WtCom= 1.00D+00 WtEn= 0.00D+00
 Coeff-Com: -0.346D-04-0.230D-04 0.144D-03-0.194D-02-0.711D-02-0.655D-02
 Coeff-Com: -0.498D-03 0.252D-01 0.323D+00 0.263D+00 0.405D+00
 Coeff:     -0.346D-04-0.230D-04 0.144D-03-0.194D-02-0.711D-02-0.655D-02
 Coeff:     -0.498D-03 0.252D-01 0.323D+00 0.263D+00 0.405D+00
 Gap=     0.123 Goal=   None    Shift=    0.000
 RMSDP=3.26D-06 MaxDP=2.05D-04 DE=-1.13D-05 OVMax= 4.48D-04

 Cycle  12  Pass 1  IDiag  1:
 RMSU=  1.65D-06    CP:  1.00D+00  5.80D-01  1.34D-01  7.50D-01  5.14D-01
                    CP:  5.60D-01  4.38D-01  6.79D-01  9.10D-01  4.49D-01
                    CP:  4.55D-01
 E= -7517.81682721828     Delta-E=       -0.000001329521 Rises=F Damp=F
 DIIS: error= 5.48D-06 at cycle  12 NSaved=  12.
 NSaved=12 IEnMin=12 EnMin= -7517.81682721828     IErMin=12 ErrMin= 5.48D-06
 ErrMax= 5.48D-06  0.00D+00 EMaxC= 1.00D-01 BMatC= 7.04D-08 BMatP= 1.04D-06
 IDIUse=1 WtCom= 1.00D+00 WtEn= 0.00D+00
 Coeff-Com: -0.257D-04 0.299D-04 0.359D-04-0.637D-03-0.231D-02-0.282D-02
 Coeff-Com: -0.197D-02 0.537D-02 0.998D-01 0.103D+00 0.244D+00 0.556D+00
 Coeff:     -0.257D-04 0.299D-04 0.359D-04-0.637D-03-0.231D-02-0.282D-02
 Coeff:     -0.197D-02 0.537D-02 0.998D-01 0.103D+00 0.244D+00 0.556D+00
 Gap=     0.123 Goal=   None    Shift=    0.000
 RMSDP=7.62D-07 MaxDP=4.98D-05 DE=-1.33D-06 OVMax= 7.72D-05

 Cycle  13  Pass 1  IDiag  1:
 RMSU=  4.80D-07    CP:  1.00D+00  5.80D-01  1.34D-01  7.50D-01  5.14D-01
                    CP:  5.59D-01  4.38D-01  6.80D-01  9.02D-01  4.52D-01
                    CP:  5.24D-01  7.72D-01
 E= -7517.81682728770     Delta-E=       -0.000000069420 Rises=F Damp=F
 DIIS: error= 1.58D-06 at cycle  13 NSaved=  13.
 NSaved=13 IEnMin=13 EnMin= -7517.81682728770     IErMin=13 ErrMin= 1.58D-06
 ErrMax= 1.58D-06  0.00D+00 EMaxC= 1.00D-01 BMatC= 4.22D-09 BMatP= 7.04D-08
 IDIUse=1 WtCom= 1.00D+00 WtEn= 0.00D+00
 Coeff-Com: -0.719D-05 0.182D-04 0.389D-05-0.112D-03-0.423D-03-0.752D-03
 Coeff-Com: -0.106D-02-0.193D-03 0.103D-01 0.172D-01 0.689D-01 0.235D+00
 Coeff-Com:  0.672D+00
 Coeff:     -0.719D-05 0.182D-04 0.389D-05-0.112D-03-0.423D-03-0.752D-03
 Coeff:     -0.106D-02-0.193D-03 0.103D-01 0.172D-01 0.689D-01 0.235D+00
 Coeff:      0.672D+00
 Gap=     0.123 Goal=   None    Shift=    0.000
 RMSDP=2.51D-07 MaxDP=1.15D-05 DE=-6.94D-08 OVMax= 2.90D-05

 Cycle  14  Pass 1  IDiag  1:
 RMSU=  1.76D-07    CP:  1.00D+00  5.80D-01  1.34D-01  7.50D-01  5.14D-01
                    CP:  5.59D-01  4.38D-01  6.80D-01  9.04D-01  4.53D-01
                    CP:  5.47D-01  8.07D-01  8.48D-01
 E= -7517.81682729246     Delta-E=       -0.000000004762 Rises=F Damp=F
 DIIS: error= 6.58D-07 at cycle  14 NSaved=  14.
 NSaved=14 IEnMin=14 EnMin= -7517.81682729246     IErMin=14 ErrMin= 6.58D-07
 ErrMax= 6.58D-07  0.00D+00 EMaxC= 1.00D-01 BMatC= 6.50D-10 BMatP= 4.22D-09
 IDIUse=1 WtCom= 1.00D+00 WtEn= 0.00D+00
 Coeff-Com: -0.324D-05 0.106D-04-0.344D-06-0.570D-05-0.125D-04-0.144D-03
 Coeff-Com: -0.423D-03-0.769D-03-0.377D-02 0.164D-03 0.139D-01 0.842D-01
 Coeff-Com:  0.361D+00 0.546D+00
 Coeff:     -0.324D-05 0.106D-04-0.344D-06-0.570D-05-0.125D-04-0.144D-03
 Coeff:     -0.423D-03-0.769D-03-0.377D-02 0.164D-03 0.139D-01 0.842D-01
 Coeff:      0.361D+00 0.546D+00
 Gap=     0.123 Goal=   None    Shift=    0.000
 RMSDP=1.05D-07 MaxDP=7.00D-06 DE=-4.76D-09 OVMax= 1.02D-05

 Cycle  15  Pass 1  IDiag  1:
 RMSU=  6.33D-08    CP:  1.00D+00  5.80D-01  1.34D-01  7.50D-01  5.14D-01
                    CP:  5.59D-01  4.38D-01  6.80D-01  9.04D-01  4.54D-01
                    CP:  5.46D-01  8.22D-01  9.42D-01  6.60D-01
 E= -7517.81682729280     Delta-E=       -0.000000000338 Rises=F Damp=F
 DIIS: error= 3.35D-07 at cycle  15 NSaved=  15.
 NSaved=15 IEnMin=15 EnMin= -7517.81682729280     IErMin=15 ErrMin= 3.35D-07
 ErrMax= 3.35D-07  0.00D+00 EMaxC= 1.00D-01 BMatC= 1.06D-10 BMatP= 6.50D-10
 IDIUse=1 WtCom= 1.00D+00 WtEn= 0.00D+00
 Coeff-Com: -0.104D-05 0.430D-05-0.804D-06 0.126D-04 0.541D-04 0.349D-04
 Coeff-Com: -0.767D-04-0.415D-03-0.363D-02-0.244D-02-0.220D-02 0.182D-01
 Coeff-Com:  0.127D+00 0.326D+00 0.538D+00
 Coeff:     -0.104D-05 0.430D-05-0.804D-06 0.126D-04 0.541D-04 0.349D-04
 Coeff:     -0.767D-04-0.415D-03-0.363D-02-0.244D-02-0.220D-02 0.182D-01
 Coeff:      0.127D+00 0.326D+00 0.538D+00
 Gap=     0.123 Goal=   None    Shift=    0.000
 RMSDP=3.75D-08 MaxDP=2.31D-06 DE=-3.38D-10 OVMax= 4.77D-06

 Cycle  16  Pass 1  IDiag  1:
 RMSU=  1.99D-08    CP:  1.00D+00  5.80D-01  1.34D-01  7.50D-01  5.14D-01
                    CP:  5.59D-01  4.38D-01  6.80D-01  9.04D-01  4.55D-01
                    CP:  5.45D-01  8.31D-01  9.37D-01  7.70D-01  7.00D-01
 E= -7517.81682729303     Delta-E=       -0.000000000226 Rises=F Damp=F
 DIIS: error= 6.86D-08 at cycle  16 NSaved=  16.
 NSaved=16 IEnMin=16 EnMin= -7517.81682729303     IErMin=16 ErrMin= 6.86D-08
 ErrMax= 6.86D-08  0.00D+00 EMaxC= 1.00D-01 BMatC= 7.63D-12 BMatP= 1.06D-10
 IDIUse=1 WtCom= 1.00D+00 WtEn= 0.00D+00
 Coeff-Com: -0.463D-06 0.129D-05-0.371D-06 0.667D-05 0.296D-04 0.433D-04
 Coeff-Com:  0.287D-04-0.867D-04-0.116D-02-0.113D-02-0.254D-02-0.288D-02
 Coeff-Com:  0.110D-01 0.717D-01 0.236D+00 0.689D+00
 Coeff:     -0.463D-06 0.129D-05-0.371D-06 0.667D-05 0.296D-04 0.433D-04
 Coeff:      0.287D-04-0.867D-04-0.116D-02-0.113D-02-0.254D-02-0.288D-02
 Coeff:      0.110D-01 0.717D-01 0.236D+00 0.689D+00
 Gap=     0.123 Goal=   None    Shift=    0.000
 RMSDP=1.12D-08 MaxDP=5.71D-07 DE=-2.26D-10 OVMax= 1.50D-06

 Cycle  17  Pass 1  IDiag  1:
 RMSU=  5.44D-09    CP:  1.00D+00  5.80D-01  1.34D-01  7.50D-01  5.14D-01
                    CP:  5.59D-01  4.38D-01  6.80D-01  9.04D-01  4.55D-01
                    CP:  5.46D-01  8.33D-01  9.46D-01  7.73D-01  7.83D-01
                    CP:  9.11D-01
 E= -7517.81682729290     Delta-E=        0.000000000127 Rises=F Damp=F
 DIIS: error= 1.51D-08 at cycle  17 NSaved=  17.
 NSaved=17 IEnMin=16 EnMin= -7517.81682729303     IErMin=17 ErrMin= 1.51D-08
 ErrMax= 1.51D-08  0.00D+00 EMaxC= 1.00D-01 BMatC= 4.41D-13 BMatP= 7.63D-12
 IDIUse=1 WtCom= 1.00D+00 WtEn= 0.00D+00
 Coeff-Com: -0.319D-07-0.364D-07-0.935D-07 0.168D-05 0.699D-05 0.145D-04
 Coeff-Com:  0.186D-04 0.765D-05-0.120D-03-0.204D-03-0.732D-03-0.298D-02
 Coeff-Com: -0.695D-02-0.949D-03 0.406D-01 0.255D+00 0.716D+00
 Coeff:     -0.319D-07-0.364D-07-0.935D-07 0.168D-05 0.699D-05 0.145D-04
 Coeff:      0.186D-04 0.765D-05-0.120D-03-0.204D-03-0.732D-03-0.298D-02
 Coeff:     -0.695D-02-0.949D-03 0.406D-01 0.255D+00 0.716D+00
 Gap=     0.123 Goal=   None    Shift=    0.000
 RMSDP=3.18D-09 MaxDP=1.19D-07 DE= 1.27D-10 OVMax= 4.93D-07

 SCF Done:  E(RPBE1PBE) =  -7517.81682729     A.U. after   17 cycles
            NFock= 17  Conv=0.32D-08     -V/T= 2.1285
 KE= 6.661940759142D+03 PE=-2.470043441874D+04 EE= 6.966094489055D+03
 Leave Link  502 at Tue Mar  6 12:10:37 2018, MaxMem=   536870912 cpu:      3000.1
 (Enter /share/apps//mg09/l601.exe)
 Copying SCF densities to generalized density rwf, IOpCl= 0 IROHF=0.

 **********************************************************************

            Population analysis using the SCF density.

 **********************************************************************

 Orbital symmetries:
       Occupied  (A) (A) (A) (A) (A) (A) (A) (A) (A) (A) (A) (A)
                 (A) (A) (A) (A) (A) (A) (A) (A) (A) (A) (A) (A)
                 (A) (A) (A) (A) (A) (A) (A) (A) (A) (A) (A) (A)
                 (A) (A) (A) (A) (A) (A) (A) (A) (A) (A) (A) (A)
                 (A) (A) (A) (A) (A) (A) (A) (A) (A) (A) (A) (A)
                 (A) (A) (A) (A) (A) (A) (A) (A) (A) (A) (A) (A)
                 (A) (A) (A) (A) (A) (A) (A) (A) (A) (A) (A) (A)
                 (A) (A) (A) (A) (A) (A) (A) (A) (A) (A) (A) (A)
                 (A) (A) (A) (A) (A) (A) (A) (A) (A) (A) (A) (A)
                 (A) (A) (A) (A) (A) (A) (A) (A)
       Virtual   (A) (A) (A) (A) (A) (A) (A) (A) (A) (A) (A) (A)
                 (A) (A) (A) (A) (A) (A) (A) (A) (A) (A) (A) (A)
                 (A) (A) (A) (A) (A) (A) (A) (A) (A) (A) (A) (A)
                 (A) (A) (A) (A) (A) (A) (A) (A) (A) (A) (A) (A)
                 (A) (A) (A) (A) (A) (A) (A) (A) (A) (A) (A) (A)
                 (A) (A) (A) (A) (A) (A) (A) (A) (A) (A) (A) (A)
                 (A) (A) (A) (A) (A) (A) (A) (A) (A) (A) (A) (A)
                 (A) (A) (A) (A) (A) (A) (A) (A) (A) (A) (A) (A)
                 (A) (A) (A) (A) (A) (A) (A) (A) (A) (A) (A) (A)
                 (A) (A) (A) (A) (A) (A) (A) (A) (A) (A) (A) (A)
                 (A) (A) (A) (A) (A) (A) (A) (A) (A) (A) (A) (A)
                 (A) (A) (A) (A) (A) (A) (A) (A) (A) (A) (A) (A)
                 (A) (A) (A) (A) (A) (A) (A) (A) (A) (A) (A) (A)
                 (A) (A) (A) (A) (A) (A) (A) (A) (A) (A) (A) (A)
                 (A) (A) (A) (A) (A) (A) (A) (A) (A) (A) (A) (A)
                 (A) (A) (A) (A) (A) (A) (A) (A) (A) (A) (A) (A)
                 (A) (A) (A) (A) (A) (A) (A) (A) (A) (A) (A) (A)
                 (A) (A) (A) (A) (A) (A) (A) (A) (A) (A) (A) (A)
                 (A) (A) (A) (A) (A) (A) (A) (A) (A) (A) (A) (A)
                 (A) (A) (A) (A) (A) (A) (A) (A) (A) (A) (A) (A)
                 (A) (A) (A) (A) (A) (A) (A) (A) (A) (A) (A) (A)
                 (A) (A) (A) (A) (A) (A) (A) (A) (A) (A) (A) (A)
                 (A) (A) (A) (A) (A) (A) (A) (A) (A) (A) (A) (A)
                 (A) (A) (A) (A) (A) (A) (A) (A) (A) (A) (A) (A)
                 (A) (A) (A) (A) (A) (A) (A) (A) (A) (A) (A) (A)
                 (A) (A) (A) (A) (A) (A) (A) (A) (A) (A) (A) (A)
                 (A) (A) (A) (A) (A) (A) (A) (A) (A) (A) (A) (A)
                 (A) (A) (A) (A)
 The electronic state is 1-A.
 Alpha  occ. eigenvalues -- -399.10373-399.09831-399.08912 -49.91907 -49.91377
 Alpha  occ. eigenvalues --  -49.90528 -44.40007 -44.39974 -44.39914 -44.39465
 Alpha  occ. eigenvalues --  -44.39437 -44.39402 -44.38605 -44.38591 -44.38541
 Alpha  occ. eigenvalues --   -6.28397  -6.27868  -6.27045  -6.02298  -6.01905
 Alpha  occ. eigenvalues --   -6.01634  -6.01011  -5.13680  -5.13313  -4.43882
 Alpha  occ. eigenvalues --   -4.43779  -4.43575  -4.43321  -4.43227  -4.43109
 Alpha  occ. eigenvalues --   -4.42500  -4.42435  -4.42272  -3.74604  -3.74405
 Alpha  occ. eigenvalues --   -3.74310  -3.74190  -3.73996  -3.73937  -3.73930
 Alpha  occ. eigenvalues --   -3.73848  -3.73528  -3.73334  -3.73108  -3.72991
 Alpha  occ. eigenvalues --   -3.46921  -3.46845  -3.46626  -3.46508  -3.46463
 Alpha  occ. eigenvalues --   -3.46308  -1.23345  -1.23323  -1.23148  -1.23075
 Alpha  occ. eigenvalues --   -1.23051  -1.22767  -1.22749  -1.22656  -1.22583
 Alpha  occ. eigenvalues --   -1.22560  -1.21978  -1.21943  -1.21837  -1.21753
 Alpha  occ. eigenvalues --   -1.21728  -1.08591  -1.08270  -1.08243  -1.08128
 Alpha  occ. eigenvalues --   -1.07968  -1.07918  -1.07880  -1.07832  -1.07718
 Alpha  occ. eigenvalues --   -1.07589  -1.07395  -1.07296  -1.07185  -1.07089
 Alpha  occ. eigenvalues --   -1.07037  -1.06926  -1.06843  -1.06703  -1.06622
 Alpha  occ. eigenvalues --   -1.06544  -1.03130  -1.03121  -1.02934  -1.02899
 Alpha  occ. eigenvalues --   -1.02822  -1.02717  -1.02703  -1.02575  -1.02509
 Alpha  occ. eigenvalues --   -1.02474  -0.66656  -0.62085  -0.59886  -0.56010
 Alpha  occ. eigenvalues --   -0.51558  -0.47167  -0.43713  -0.41877  -0.40964
 Alpha  occ. eigenvalues --   -0.28953  -0.27659  -0.26662  -0.25682  -0.24740
 Alpha  occ. eigenvalues --   -0.24292  -0.23325  -0.22688  -0.22320  -0.20996
 Alpha  occ. eigenvalues --   -0.20013
 Alpha virt. eigenvalues --   -0.07729  -0.07293  -0.06793  -0.06382  -0.05953
 Alpha virt. eigenvalues --   -0.05609  -0.05501  -0.04521  -0.04351  -0.04023
 Alpha virt. eigenvalues --   -0.03132  -0.02364  -0.01390   0.03410   0.05142
 Alpha virt. eigenvalues --    0.05269   0.06565   0.07813   0.08830   0.09222
 Alpha virt. eigenvalues --    0.09267   0.09735   0.09806   0.09908   0.10562
 Alpha virt. eigenvalues --    0.10784   0.11461   0.11988   0.13044   0.13117
 Alpha virt. eigenvalues --    0.13555   0.15525   0.16578   0.17338   0.17609
 Alpha virt. eigenvalues --    0.17896   0.18865   0.19234   0.19707   0.19728
 Alpha virt. eigenvalues --    0.20690   0.21110   0.22832   0.23707   0.24235
 Alpha virt. eigenvalues --    0.24643   0.24839   0.26221   0.27115   0.28505
 Alpha virt. eigenvalues --    0.29378   0.30156   0.30479   0.30732   0.31079
 Alpha virt. eigenvalues --    0.31354   0.31956   0.33466   0.33837   0.34116
 Alpha virt. eigenvalues --    0.34622   0.35309   0.35651   0.37154   0.37765
 Alpha virt. eigenvalues --    0.38221   0.39362   0.41160   0.41481   0.41786
 Alpha virt. eigenvalues --    0.41851   0.42672   0.43514   0.43774   0.45282
 Alpha virt. eigenvalues --    0.45519   0.45858   0.46423   0.47020   0.48115
 Alpha virt. eigenvalues --    0.48973   0.49107   0.50476   0.50728   0.51577
 Alpha virt. eigenvalues --    0.51709   0.54246   0.54808   0.55687   0.56370
 Alpha virt. eigenvalues --    0.57005   0.58264   0.58414   0.59011   0.59408
 Alpha virt. eigenvalues --    0.60112   0.61069   0.61138   0.61747   0.62351
 Alpha virt. eigenvalues --    0.62727   0.63520   0.64739   0.65653   0.65758
 Alpha virt. eigenvalues --    0.66285   0.67311   0.67974   0.68508   0.70191
 Alpha virt. eigenvalues --    0.70477   0.71395   0.73070   0.74103   0.74411
 Alpha virt. eigenvalues --    0.74736   0.75543   0.76493   0.76999   0.78120
 Alpha virt. eigenvalues --    0.78690   0.80007   0.80830   0.81533   0.82502
 Alpha virt. eigenvalues --    0.83298   0.84141   0.84696   0.85208   0.86345
 Alpha virt. eigenvalues --    0.87273   0.87604   0.88501   0.89246   0.90182
 Alpha virt. eigenvalues --    0.90686   0.91330   0.92209   0.92405   0.93159
 Alpha virt. eigenvalues --    0.94171   0.94464   0.94963   0.96885   0.98216
 Alpha virt. eigenvalues --    0.98745   0.99173   1.00568   1.01216   1.02009
 Alpha virt. eigenvalues --    1.02184   1.02538   1.04862   1.05517   1.06494
 Alpha virt. eigenvalues --    1.08102   1.08371   1.09160   1.10452   1.12758
 Alpha virt. eigenvalues --    1.13312   1.13933   1.14256   1.14524   1.16680
 Alpha virt. eigenvalues --    1.18554   1.19076   1.19411   1.20176   1.20475
 Alpha virt. eigenvalues --    1.20777   1.21051   1.21557   1.21952   1.22153
 Alpha virt. eigenvalues --    1.22368   1.23330   1.23593   1.23825   1.24305
 Alpha virt. eigenvalues --    1.25129   1.25593   1.26666   1.27627   1.28236
 Alpha virt. eigenvalues --    1.28416   1.28698   1.28819   1.29576   1.29976
 Alpha virt. eigenvalues --    1.31457   1.32152   1.32609   1.33476   1.34055
 Alpha virt. eigenvalues --    1.34433   1.34702   1.36463   1.37580   1.38738
 Alpha virt. eigenvalues --    1.39726   1.40061   1.40872   1.42386   1.43291
 Alpha virt. eigenvalues --    1.44110   1.45108   1.45870   1.47084   1.48141
 Alpha virt. eigenvalues --    1.48735   1.49358   1.50594   1.52891   1.54288
 Alpha virt. eigenvalues --    1.55331   1.55745   1.58100   1.58311   1.60090
 Alpha virt. eigenvalues --    1.62582   1.68352   1.70704   2.04283   2.05502
 Alpha virt. eigenvalues --    2.08693   2.09453   2.10873   2.14005   2.16252
 Alpha virt. eigenvalues --    2.16832   2.17809   2.18086   2.19851   2.21433
 Alpha virt. eigenvalues --    2.21895   2.23286   2.23609   2.24804   2.25713
 Alpha virt. eigenvalues --    2.27642   2.29123   2.29281   2.30935   2.31541
 Alpha virt. eigenvalues --    2.33984   2.34822   2.36006   2.39446   2.39900
 Alpha virt. eigenvalues --    2.41434   2.41696   2.43810   2.44552   2.47033
 Alpha virt. eigenvalues --    2.49915   2.50183   2.51163   2.53702   2.55578
 Alpha virt. eigenvalues --    2.58076   2.58896   2.63401   2.64501   2.66744
 Alpha virt. eigenvalues --    2.67432   2.70814   2.71656   2.73288   2.76563
 Alpha virt. eigenvalues --    2.77595   2.78157   2.78894   2.80725   2.81540
 Alpha virt. eigenvalues --    2.82947   2.84237   2.86705   2.94046   2.96063
 Alpha virt. eigenvalues --    3.18564   3.24493   3.31838   3.35657   3.40091
 Alpha virt. eigenvalues --    3.41527   3.92707   3.95774   3.99515   3.99530
 Alpha virt. eigenvalues --    4.01654   4.03192   4.08348   4.10212   4.14803
 Alpha virt. eigenvalues --    5.28752   5.34565   5.38201  35.36295  35.39622
 Alpha virt. eigenvalues --   35.41372  35.42683  35.45858  35.47008  35.50468
 Alpha virt. eigenvalues --   35.51499  35.53158  35.54693  35.60666  35.62791
 Alpha virt. eigenvalues --   35.86795  35.94123  36.02436  36.06587  36.18900
 Alpha virt. eigenvalues --   36.21903  36.91715  36.98741  37.00930  37.05509
 Alpha virt. eigenvalues --   37.08426  37.11545 113.57174 113.58625 120.21888
 Alpha virt. eigenvalues --  120.23553 120.25039 120.25657
          Condensed to atoms (all electrons):
               1          2          3          4          5          6
     1  Bi  22.236884   0.177074   0.078600   0.122269  -0.020780  -0.021940
     2  Ge   0.177074  31.580205   0.164707   0.132540   0.180020  -0.017048
     3  Ge   0.078600   0.164707  31.539836  -0.026643   0.070582  -0.019839
     4  Ge   0.122269   0.132540  -0.026643  31.554513   0.084735   0.157495
     5  Sn  -0.020780   0.180020   0.070582   0.084735  21.316548   0.137789
     6  Bi  -0.021940  -0.017048  -0.019839   0.157495   0.137789  22.409919
     7  Sn   0.141318  -0.013210  -0.015811   0.111610  -0.012390   0.192346
     8  Bi  -0.023271  -0.017797   0.157706  -0.018385   0.131093   0.179460
     9  Bi   0.156766  -0.016663   0.120452  -0.018425  -0.016247  -0.026280
               7          8          9
     1  Bi   0.141318  -0.023271   0.156766
     2  Ge  -0.013210  -0.017797  -0.016663
     3  Ge  -0.015811   0.157706   0.120452
     4  Ge   0.111610  -0.018385  -0.018425
     5  Sn  -0.012390   0.131093  -0.016247
     6  Bi   0.192346   0.179460  -0.026280
     7  Sn  21.439472  -0.016445   0.165654
     8  Bi  -0.016445  22.370499   0.201400
     9  Bi   0.165654   0.201400  22.427237
 Mulliken charges:
               1
     1  Bi   0.153080
     2  Ge  -0.169829
     3  Ge  -0.069589
     4  Ge  -0.099710
     5  Sn   0.128651
     6  Bi   0.008097
     7  Sn   0.007455
     8  Bi   0.035740
     9  Bi   0.006105
 Sum of Mulliken charges =   0.00000
 Mulliken charges with hydrogens summed into heavy atoms:
               1
     1  Bi   0.153080
     2  Ge  -0.169829
     3  Ge  -0.069589
     4  Ge  -0.099710
     5  Sn   0.128651
     6  Bi   0.008097
     7  Sn   0.007455
     8  Bi   0.035740
     9  Bi   0.006105
 Electronic spatial extent (au):  <R**2>=           6116.8671
 Charge=              0.0000 electrons
 Dipole moment (field-independent basis, Debye):
    X=             -0.1422    Y=              1.4477    Z=              0.5637  Tot=              1.5600
 Quadrupole moment (field-independent basis, Debye-Ang):
   XX=           -213.7486   YY=           -219.2946   ZZ=           -221.6153
   XY=             -0.1443   XZ=              1.3079   YZ=              0.8774
 Traceless Quadrupole moment (field-independent basis, Debye-Ang):
   XX=              4.4709   YY=             -1.0751   ZZ=             -3.3958
   XY=             -0.1443   XZ=              1.3079   YZ=              0.8774
 Octapole moment (field-independent basis, Debye-Ang**2):
  XXX=              7.4047  YYY=            126.1409  ZZZ=             45.0365  XYY=             -4.3744
  XXY=             36.8348  XXZ=             14.4816  XZZ=            -10.3878  YZZ=             38.5088
  YYZ=             15.3318  XYZ=              1.0950
 Hexadecapole moment (field-independent basis, Debye-Ang**3):
 XXXX=          -3457.6915 YYYY=          -3149.5627 ZZZZ=          -3084.5775 XXXY=            -56.8119
 XXXZ=            -53.7163 YYYX=            -16.3519 YYYZ=            -62.3686 ZZZX=            -62.0875
 ZZZY=            -55.7313 XXYY=          -1093.5852 XXZZ=          -1102.6016 YYZZ=          -1057.5521
 XXYZ=            -18.8955 YYXZ=              0.6712 ZZXY=             -1.2698
 N-N= 3.554582343249D+03 E-N=-2.470043441000D+04  KE= 6.661940759142D+03
 No NMR shielding tensors so no spin-rotation constants.
 Leave Link  601 at Tue Mar  6 12:10:37 2018, MaxMem=   536870912 cpu:         1.3
 (Enter /share/apps//mg09/l701.exe)
 Compute integral first derivatives.
 ... and contract with generalized density number  0.
   1 Symmetry operations used in ECPInt.
 ECPInt:  NShTT=   10440 NPrTT=   41973 LenC2=    9672 LenP2D=   27422.
 LDataN:  DoStor=T MaxTD1= 9 Len=  602
 Leave Link  701 at Tue Mar  6 12:10:55 2018, MaxMem=   536870912 cpu:        70.2
 (Enter /share/apps//mg09/l702.exe)
 L702 exits ... SP integral derivatives will be done elsewhere.
 Leave Link  702 at Tue Mar  6 12:10:55 2018, MaxMem=   536870912 cpu:         0.1
 (Enter /share/apps//mg09/l703.exe)
 Compute integral first derivatives, UseDBF=F ICtDFT=           0.
 Integral derivatives from FoFJK, PRISM(SPDF).
 Calling FoFJK, ICntrl=      2127 FMM=F ISym2X=0 I1Cent= 0 IOpClX= 0 NMat=1 NMatS=1 NMatT=0.
 FoFJK:  IHMeth= 1 ICntrl=    2127 DoSepK=F KAlg= 0 I1Cent=   0 FoldK=F
 IRaf=         0 NMat=   1 IRICut=       1 DoRegI=T DoRafI=F ISym2E= 0.
 FoFCou: FMM=F IPFlag=           0 FMFlag=      100000 FMFlg1=         800
         NFxFlg=           0 DoJE=F BraDBF=F KetDBF=F FulRan=T
         wScrn=  0.000000 ICntrl=    2127 IOpCl=  0 I1Cent=           0 NGrid=           0
         NMat0=    1 NMatS0=      1 NMatT0=    0 NMatD0=    1 NMtDS0=    0 NMtDT0=    0
 Symmetry not used in FoFCou.
 Defaulting to unpruned grid for atomic number  83.
 Defaulting to unpruned grid for atomic number  83.
 Defaulting to unpruned grid for atomic number  83.
 Defaulting to unpruned grid for atomic number  83.
 Leave Link  703 at Tue Mar  6 12:13:57 2018, MaxMem=   536870912 cpu:       727.4
 (Enter /share/apps//mg09/l716.exe)
 Dipole        =-5.59290494D-02 5.69561180D-01 2.21761382D-01
 ***** Axes restored to original set *****
 -------------------------------------------------------------------
 Center     Atomic                   Forces (Hartrees/Bohr)
 Number     Number              X              Y              Z
 -------------------------------------------------------------------
      1       83           0.011011419   -0.000996675    0.001104678
      2       32           0.005409590    0.012403534   -0.010178898
      3       32           0.003537778   -0.007479365   -0.010929577
      4       32          -0.000221989    0.011542912    0.008425416
      5       50          -0.013659181    0.003286223   -0.004958915
      6       83          -0.007071373   -0.001828735    0.005124879
      7       50           0.003171367   -0.003950275    0.010116414
      8       83          -0.005607206   -0.006452425    0.000140526
      9       83           0.003429595   -0.006525195    0.001155476
 -------------------------------------------------------------------
 Cartesian Forces:  Max     0.013659181 RMS     0.007099099
 Force constants in Cartesian coordinates: 
                1             2             3             4             5 
      1  0.237150D+00
      2  0.324136D-02  0.162151D+00
      3  0.966870D-02 -0.181026D-01  0.158822D+00
      4 -0.557059D-01  0.314728D-01 -0.360956D-01  0.148906D+00
      5 -0.132109D-02 -0.428746D-01  0.210745D-01  0.677515D-02  0.172217D+00
      6 -0.518513D-02  0.274369D-01 -0.467252D-01 -0.106678D-02 -0.414130D-01
      7 -0.364371D-01 -0.154467D-01 -0.244122D-01 -0.245497D-01 -0.931607D-02
      8 -0.955653D-03 -0.194497D-01 -0.121712D-01  0.287881D-02 -0.636289D-01
      9  0.845158D-02 -0.880477D-02 -0.396522D-01  0.589992D-02  0.152389D-01
     10 -0.533355D-01  0.298624D-01  0.201415D-01 -0.239663D-01  0.398327D-02
     11 -0.362736D-02 -0.411390D-01 -0.109708D-01 -0.653831D-02 -0.361700D-01
     12  0.399121D-04 -0.113482D-01 -0.253727D-01  0.634345D-02 -0.245353D-01
     13 -0.875034D-02 -0.106346D-02 -0.188545D-02 -0.646705D-01  0.729356D-02
     14  0.507538D-02  0.654331D-02  0.206899D-02 -0.273216D-01 -0.312355D-01
     15 -0.723740D-02  0.104480D-02  0.656543D-02  0.186940D-01  0.116124D-01
     16 -0.509586D-02 -0.387868D-02 -0.202551D-03  0.262707D-02 -0.343565D-02
     17  0.974178D-03  0.595318D-02 -0.174056D-02  0.155761D-02  0.304464D-02
     18  0.752286D-02  0.795130D-03  0.310831D-02  0.549043D-02  0.669148D-02
     19 -0.392940D-01 -0.107420D-01  0.318752D-01  0.739649D-02 -0.101692D-02
     20 -0.690575D-03 -0.191172D-01  0.152501D-01 -0.342291D-02  0.352435D-02
     21 -0.573861D-02  0.900864D-02 -0.448853D-01 -0.402750D-04  0.770511D-02
     22 -0.343361D-02 -0.103597D-02  0.199948D-02  0.439799D-02 -0.771320D-02
     23 -0.869875D-02  0.205873D-02 -0.355963D-03 -0.565423D-02 -0.145875D-02
     24 -0.360844D-02 -0.243360D-02  0.513683D-02 -0.254698D-02  0.358629D-03
     25 -0.350981D-01 -0.324097D-01 -0.108893D-02  0.556505D-02  0.475096D-02
     26  0.600252D-02 -0.541259D-01  0.494740D-02  0.252660D-03 -0.341828D-02
     27 -0.391348D-02  0.240364D-02 -0.169967D-01  0.332189D-02  0.326719D-02
                6             7             8             9            10 
      6  0.163761D+00
      7  0.285232D-03  0.143715D+00
      8 -0.289001D-01  0.415315D-02  0.167766D+00
      9 -0.390108D-01 -0.202428D-01  0.118812D-01  0.222262D+00
     10  0.120445D-01  0.725673D-02 -0.240258D-03  0.125925D-02  0.152544D+00
     11  0.182191D-01  0.223023D-02 -0.116074D-02 -0.129935D-01  0.591356D-02
     12 -0.587499D-01  0.269574D-02 -0.432341D-02 -0.349782D-02 -0.125972D-01
     13 -0.121681D-01 -0.309008D-01  0.842078D-02 -0.131230D-01 -0.291028D-01
     14  0.750874D-02  0.174297D-01 -0.210674D-01  0.572037D-02 -0.129681D-01
     15 -0.283296D-01  0.174694D-01 -0.129937D-01 -0.303275D-01 -0.214176D-01
     16  0.774188D-02  0.121336D-02  0.213681D-02  0.923789D-02 -0.443421D-01
     17  0.203635D-02 -0.105924D-03  0.559489D-02 -0.120803D-02 -0.392742D-01
     18  0.162673D-02 -0.193007D-04 -0.178551D-02 -0.331673D-02  0.215691D-02
     19 -0.384326D-02  0.422610D-02  0.108899D-03 -0.501925D-02 -0.158990D-01
     20  0.219933D-02  0.879593D-03  0.596416D-02  0.999114D-03  0.124494D-01
     21 -0.254777D-02  0.348366D-02 -0.216618D-02 -0.588126D-02 -0.438966D-04
     22  0.127902D-02 -0.462464D-01 -0.232303D-01  0.112956D-01  0.283804D-02
     23  0.583639D-02 -0.812119D-02 -0.355683D-01 -0.716309D-02  0.127063D-02
     24  0.418248D-02  0.367843D-01  0.189346D-01 -0.440224D-01  0.134376D-03
     25  0.912572D-03 -0.182770D-01  0.672778D-02  0.224077D-02  0.400739D-02
     26  0.707616D-02  0.829724D-02 -0.384501D-01 -0.367012D-02 -0.996745D-03
     27  0.579313D-02 -0.160441D-01  0.315242D-01 -0.565538D-01 -0.167784D-02
               11            12            13            14            15 
     11  0.215187D+00
     12  0.274690D-01  0.168708D+00
     13  0.133692D-01 -0.530268D-02  0.188989D+00
     14 -0.303123D-01 -0.175724D-01 -0.199188D-01  0.148042D+00
     15  0.405269D-02 -0.284434D-01  0.264989D-01 -0.301059D-01  0.149435D+00
     16 -0.125543D-01  0.171290D-01 -0.301360D-01  0.893945D-02 -0.200802D-01
     17 -0.530235D-01  0.140908D-01 -0.408674D-02 -0.206415D-01  0.209831D-01
     18 -0.968909D-02 -0.305280D-01  0.167312D-01  0.110285D-01 -0.544336D-01
     19  0.209535D-02 -0.594457D-02  0.233288D-02  0.385689D-02 -0.165953D-02
     20 -0.443310D-01  0.241293D-01  0.167976D-02  0.426439D-02 -0.113061D-02
     21 -0.123176D-01 -0.310430D-01 -0.776736D-02  0.500678D-02 -0.111601D-02
     22 -0.780604D-02 -0.348554D-02 -0.288603D-01  0.221726D-01 -0.759060D-02
     23 -0.384010D-02 -0.339017D-02 -0.134822D-01 -0.554909D-01  0.156369D-02
     24 -0.376287D-02  0.420656D-02 -0.242597D-02  0.179457D-01 -0.172604D-01
     25  0.691770D-02  0.112184D-02  0.109908D-02  0.273446D-02 -0.467693D-02
     26 -0.521061D-02 -0.451962D-02  0.778793D-02 -0.102414D-03  0.497346D-02
     27 -0.701504D-05  0.472006D-02 -0.557581D-03 -0.160076D-02  0.391010D-02
               16            17            18            19            20 
     16  0.155657D+00
     17  0.146471D-01  0.107991D+00
     18 -0.255335D-01 -0.491324D-02  0.147963D+00
     19 -0.533619D-01  0.135638D-01 -0.250316D-01  0.110669D+00
     20 -0.458036D-03 -0.148819D-01  0.302041D-02 -0.122595D-01  0.954235D-01
     21  0.963658D-02  0.124402D-02 -0.308654D-01  0.112472D-01 -0.123079D-01
     22 -0.248044D-01  0.799910D-02  0.135728D-01  0.171269D-02 -0.474271D-02
     23 -0.102793D-01 -0.326851D-01 -0.536120D-02 -0.447516D-02  0.171236D-02
     24 -0.312055D-02 -0.307189D-01 -0.368157D-01 -0.550798D-02 -0.886746D-03
     25 -0.175748D-02  0.472503D-02  0.511023D-02 -0.177821D-01  0.656491D-02
     26  0.488262D-02 -0.135148D-02  0.213557D-03  0.886859D-02 -0.325586D-01
     27  0.519143D-02  0.226486D-03  0.326191D-02  0.388390D-02 -0.312729D-01
               21            22            23            24            25 
     21  0.160084D+00
     22 -0.506159D-02  0.149945D+00
     23 -0.287685D-03  0.271631D-01  0.153976D+00
     24 -0.309656D-02 -0.459242D-02  0.613998D-02  0.105544D+00
     25 -0.571570D-02 -0.555495D-01  0.222772D-01 -0.151164D-01  0.117793D+00
     26  0.411484D-02 -0.128065D-01 -0.287043D-01 -0.557680D-02 -0.222883D-01
     27 -0.406490D-01 -0.741676D-02  0.301805D-02 -0.178751D-01  0.172125D-01
               26            27 
     26  0.163922D+00
     27 -0.755888D-02  0.114389D+00
 Leave Link  716 at Tue Mar  6 12:13:57 2018, MaxMem=   536870912 cpu:         0.1
 (Enter /share/apps//mg09/l103.exe)

 GradGradGradGradGradGradGradGradGradGradGradGradGradGradGradGradGradGrad
 Berny optimization.
 Search for a local minimum.
 Step number   1 out of a maximum of  100
 All quantities printed in internal units (Hartrees-Bohrs-Radians)
 Second derivative matrix not updated -- first step.
 ITU=  0
     Eigenvalues ---    0.07675   0.12065   0.12210   0.12512   0.12972
     Eigenvalues ---    0.13675   0.14861   0.15166   0.16092   0.16602
     Eigenvalues ---    0.18123   0.21385   0.21880   0.23575   0.24886
     Eigenvalues ---    0.25235   0.26568   0.28785   0.29407   0.31148
     Eigenvalues ---    0.32016
 RFO step:  Lambda=-8.06502267D-03 EMin= 7.67537492D-02
 Linear search not attempted -- first point.
 TrRot=  0.000975  0.001704 -0.001500  0.000024  0.000064  0.000024
 MatCor failed.
 Variable       Old X    -DE/DX   Delta X   Delta X   Delta X     New X
                                 (Linear)    (Quad)   (Total)
    X1       -4.51513   0.01101   0.00000   0.05770   0.05876  -4.45637
    Y1       -1.51743  -0.00100   0.00000   0.00618   0.00768  -1.50975
    Z1        0.20065   0.00110   0.00000   0.00277   0.00155   0.20220
    X2       -1.34750   0.00541   0.00000   0.03009   0.03148  -1.31602
    Y2       -4.33237   0.01240   0.00000   0.06601   0.06765  -4.26473
    Z2        3.47624  -0.01018   0.00000  -0.05642  -0.05784   3.41840
    X3       -0.99376   0.00354   0.00000   0.01718   0.01840  -0.97536
    Y3        0.75997  -0.00748   0.00000  -0.04258  -0.04092   0.71905
    Z3        4.54218  -0.01093   0.00000  -0.06064  -0.06207   4.48010
    X4       -0.10859  -0.00022   0.00000  -0.00196  -0.00088  -0.10947
    Y4       -4.57677   0.01154   0.00000   0.06121   0.06291  -4.51387
    Z4       -1.68417   0.00843   0.00000   0.04721   0.04571  -1.63846
    X5        3.65968  -0.01366   0.00000  -0.07457  -0.07331   3.58637
    Y5       -2.66431   0.00329   0.00000   0.02247   0.02434  -2.63997
    Z5        2.57673  -0.00496   0.00000  -0.03204  -0.03376   2.54296
    X6        3.68073  -0.00707   0.00000  -0.05089  -0.05006   3.63068
    Y6       -0.75235  -0.00183   0.00000  -0.00104   0.00084  -0.75151
    Z6       -2.88425   0.00512   0.00000   0.04263   0.04090  -2.84335
    X7       -1.72212   0.00317   0.00000   0.02345   0.02413  -1.69798
    Y7        0.22458  -0.00395   0.00000  -0.02718  -0.02556   0.19902
    Z7       -4.59644   0.01012   0.00000   0.07369   0.07230  -4.52414
    X8        3.01999  -0.00561   0.00000  -0.03889  -0.03796   2.98203
    Y8        3.02962  -0.00645   0.00000  -0.04762  -0.04577   2.98385
    Z8        1.48489   0.00014   0.00000  -0.00803  -0.00972   1.47516
    X9       -2.40827   0.00343   0.00000   0.02863   0.02943  -2.37885
    Y9        3.85173  -0.00653   0.00000  -0.05275  -0.05116   3.80057
    Z9       -0.02671   0.00116   0.00000   0.00428   0.00294  -0.02377
         Item               Value     Threshold  Converged?
 Maximum Force            0.013659     0.000450     NO 
 RMS     Force            0.007099     0.000300     NO 
 Maximum Displacement     0.073307     0.001800     NO 
 RMS     Displacement     0.042693     0.001200     NO 
 Predicted change in Energy=-4.231167D-03
 Lowest energy point so far.  Saving SCF results.
 GradGradGradGradGradGradGradGradGradGradGradGradGradGradGradGradGradGrad

 Leave Link  103 at Tue Mar  6 12:13:57 2018, MaxMem=   536870912 cpu:         0.1
 (Enter /share/apps//mg09/l202.exe)
                          Input orientation:                          
 ---------------------------------------------------------------------
 Center     Atomic      Atomic             Coordinates (Angstroms)
 Number     Number       Type             X           Y           Z
 ---------------------------------------------------------------------
      1         83           0       -2.358207   -0.798925    0.106999
      2         32           0       -0.696407   -2.256796    1.808940
      3         32           0       -0.516136    0.380503    2.370769
      4         32           0       -0.057930   -2.388635   -0.867035
      5         50           0        1.897826   -1.397011    1.345678
      6         83           0        1.921271   -0.397681   -1.504636
      7         50           0       -0.898534    0.105317   -2.394072
      8         83           0        1.578020    1.578984    0.780622
      9         83           0       -1.258833    2.011173   -0.012581
 ---------------------------------------------------------------------
                    Distance matrix (angstroms):
                    1          2          3          4          5
     1  Bi   0.000000
     2  Ge   2.789905   0.000000
     3  Ge   3.147846   2.702498   0.000000
     4  Ge   2.960945   2.754247   4.285027   0.000000
     5  Sn   4.472790   2.771983   3.168215   3.115188   0.000000
     6  Bi   4.590457   4.613928   4.643844   2.878831   3.020513
     7  Sn   3.033752   4.825530   4.788076   3.042738   4.905339
     8  Bi   4.647807   4.576425   2.889708   4.597076   3.046000
     9  Bi   3.019864   4.674379   2.981784   4.640105   4.839947
                    6          7          8          9
     6  Bi   0.000000
     7  Sn   2.999234   0.000000
     8  Bi   3.040959   4.287622   0.000000
     9  Bi   4.259327   3.071418   2.977195   0.000000
 Stoichiometry    Bi4Ge3Sn2
 Framework group  C1[X(Bi4Ge3Sn2)]
 Deg. of freedom    21
 Full point group                 C1      NOp   1
 RotChk:  IX=0 Diff= 8.18D-03
 Largest Abelian subgroup         C1      NOp   1
 Largest concise Abelian subgroup C1      NOp   1
                         Standard orientation:                         
 ---------------------------------------------------------------------
 Center     Atomic      Atomic             Coordinates (Angstroms)
 Number     Number       Type             X           Y           Z
 ---------------------------------------------------------------------
      1         83           0        2.359391   -0.787638   -0.108923
      2         32           0        0.701150   -2.241083   -1.818105
      3         32           0        0.513860    0.398592   -2.366312
      4         32           0        0.063455   -2.388384    0.857250
      5         50           0       -1.895258   -1.390517   -1.350034
      6         83           0       -1.920865   -0.405949    1.505394
      7         50           0        0.897753    0.099868    2.396991
      8         83           0       -1.583179    1.583358   -0.769701
      9         83           0        1.252657    2.018908    0.025296
 ---------------------------------------------------------------------
 Rotational constants (GHZ):      0.1058011      0.0908288      0.0851471
 Leave Link  202 at Tue Mar  6 12:13:58 2018, MaxMem=   536870912 cpu:         0.0
 (Enter /share/apps//mg09/l301.exe)
 Standard basis: def2TZVP (5D, 7F)
 Ernie: Thresh=  0.10000D-02 Tol=  0.10000D-05 Strict=F.
 There are   519 symmetry adapted cartesian basis functions of A   symmetry.
 There are   444 symmetry adapted basis functions of A   symmetry.
   444 basis functions,   963 primitive gaussians,   519 cartesian basis functions
   116 alpha electrons      116 beta electrons
       nuclear repulsion energy      3610.4821031638 Hartrees.
 IExCor= 1009 DFT=T Ex+Corr=PBE1PBE ExCW=0 ScaHFX=  0.250000
 ScaDFX=  0.750000  0.750000  1.000000  1.000000 ScalE2=  1.000000  1.000000
 IRadAn=      0 IRanWt=     -1 IRanGd=            0 ICorTp=0 IEmpDi=  4
 NAtoms=    9 NActive=    9 NUniq=    9 SFac= 1.00D+00 NAtFMM=   60 NAOKFM=F Big=F
 Integral buffers will be    131072 words long.
 Raffenetti 2 integral format.
 Two-electron integral symmetry is turned on.
 Leave Link  301 at Tue Mar  6 12:13:59 2018, MaxMem=   536870912 cpu:         0.2
 (Enter /share/apps//mg09/l302.exe)
 NPDir=0 NMtPBC=     1 NCelOv=     1 NCel=       1 NClECP=     1 NCelD=      1
         NCelK=      1 NCelE2=     1 NClLst=     1 CellRange=     0.0.
 One-electron integrals computed using PRISM.
   1 Symmetry operations used in ECPInt.
 ECPInt:  NShTT=   10440 NPrTT=   41973 LenC2=    9705 LenP2D=   27599.
 LDataN:  DoStor=T MaxTD1= 8 Len=  415
 NBasis=   444 RedAO= T EigKep=  1.32D-03  NBF=   444
 NBsUse=   444 1.00D-06 EigRej= -1.00D+00 NBFU=   444
 Precomputing XC quadrature grid using
 IXCGrd= 4 IRadAn=           0 IRanWt=          -1 IRanGd=           0 AccXCQ= 0.00D+00.
 Defaulting to unpruned grid for atomic number  83.
 Defaulting to unpruned grid for atomic number  50.
 Defaulting to unpruned grid for atomic number  50.
 Generated NRdTot=       0 NPtTot=           0 NUsed=           0 NTot=          32
 NSgBfM=   509   509   509   509   509 MxSgAt=     9 MxSgA2=     9.
 Leave Link  302 at Tue Mar  6 12:14:05 2018, MaxMem=   536870912 cpu:        25.6
 (Enter /share/apps//mg09/l303.exe)
 DipDrv:  MaxL=1.
 Leave Link  303 at Tue Mar  6 12:14:05 2018, MaxMem=   536870912 cpu:         0.2
 (Enter /share/apps//mg09/l401.exe)
 Initial guess from the checkpoint file:  "Isomer_14.chk"
 B after Tr=     0.000000    0.000000    0.000000
         Rot=    0.999996   -0.002627    0.000004   -0.001364 Ang=  -0.34 deg.
 Guess basis will be translated and rotated to current coordinates.
 JPrj=2 DoOrth=T DoCkMO=T.
 Generating alternative initial guess.
 ExpMin= 4.62D-02 ExpMax= 4.66D+05 ExpMxC= 4.50D+03 IAcc=2 IRadAn=         4 AccDes= 0.00D+00
 Harris functional with IExCor= 1009 and IRadAn=       4 diagonalized for initial guess.
 HarFok:  IExCor= 1009 AccDes= 0.00D+00 IRadAn=         4 IDoV= 1 UseB2=F ITyADJ=14
 ICtDFT=  3500011 ScaDFX=  1.000000  1.000000  1.000000  1.000000
 Defaulting to unpruned grid for atomic number  83.
 Defaulting to unpruned grid for atomic number  83.
 Defaulting to unpruned grid for atomic number  83.
 Defaulting to unpruned grid for atomic number  83.
 FoFCou: FMM=F IPFlag=           0 FMFlag=      100000 FMFlg1=           0
         NFxFlg=           0 DoJE=T BraDBF=F KetDBF=T FulRan=T
         wScrn=  0.000000 ICntrl=     500 IOpCl=  0 I1Cent=   200000004 NGrid=           0
         NMat0=    1 NMatS0=      1 NMatT0=    0 NMatD0=    1 NMtDS0=    0 NMtDT0=    0
 Petite list used in FoFCou.
 Harris En= -7518.62220070622    
 Leave Link  401 at Tue Mar  6 12:14:08 2018, MaxMem=   536870912 cpu:        11.3
 (Enter /share/apps//mg09/l502.exe)
 Closed shell SCF:
 Using DIIS extrapolation, IDIIS=  1040.
 Integral symmetry usage will be decided dynamically.
 IVT=     1410107 IEndB=     1410107 NGot=   536870912 MDV=   536322046
 LenX=   536322046 LenY=   536052166
 Requested convergence on RMS density matrix=1.00D-08 within 768 cycles.
 Requested convergence on MAX density matrix=1.00D-06.
 Requested convergence on             energy=1.00D-06.
 No special actions if energy rises.
 Fock matrices will be formed incrementally for  20 cycles.

 Cycle   1  Pass 1  IDiag  1:
 FoFJK:  IHMeth= 1 ICntrl=       0 DoSepK=F KAlg= 0 I1Cent=   0 FoldK=F
 IRaf= 880000000 NMat=   1 IRICut=       1 DoRegI=T DoRafI=F ISym2E= 0.
 FoFCou: FMM=F IPFlag=           0 FMFlag=      100000 FMFlg1=           0
         NFxFlg=           0 DoJE=F BraDBF=F KetDBF=F FulRan=T
         wScrn=  0.000000 ICntrl=       0 IOpCl=  0 I1Cent=           0 NGrid=           0
         NMat0=    1 NMatS0=      1 NMatT0=    0 NMatD0=    1 NMtDS0=    0 NMtDT0=    0
 Symmetry not used in FoFCou.
 Defaulting to unpruned grid for atomic number  83.
 Defaulting to unpruned grid for atomic number  83.
 Defaulting to unpruned grid for atomic number  83.
 Defaulting to unpruned grid for atomic number  83.
 E= -7517.82131492793    
 DIIS: error= 6.38D-03 at cycle   1 NSaved=   1.
 NSaved= 1 IEnMin= 1 EnMin= -7517.82131492793     IErMin= 1 ErrMin= 6.38D-03
 ErrMax= 6.38D-03  0.00D+00 EMaxC= 1.00D-01 BMatC= 8.24D-03 BMatP= 8.24D-03
 IDIUse=3 WtCom= 9.36D-01 WtEn= 6.38D-02
 Coeff-Com:  0.100D+01
 Coeff-En:   0.100D+01
 Coeff:      0.100D+01
 Gap=     7.410 Goal=   None    Shift=    0.000
 GapD=    7.410 DampG=2.000 DampE=1.000 DampFc=2.0000 IDamp=-1.
 RMSDP=1.75D-04 MaxDP=4.74D-03              OVMax= 1.94D-02

 Cycle   2  Pass 1  IDiag  1:
 RMSU=  1.75D-04    CP:  1.00D+00
 E= -7517.82127404395     Delta-E=        0.000040883975 Rises=F Damp=F
 DIIS: error= 1.53D-03 at cycle   2 NSaved=   2.
 NSaved= 2 IEnMin= 1 EnMin= -7517.82131492793     IErMin= 2 ErrMin= 1.53D-03
 ErrMax= 1.53D-03  0.00D+00 EMaxC= 1.00D-01 BMatC= 1.59D-03 BMatP= 8.24D-03
 IDIUse=3 WtCom= 9.85D-01 WtEn= 1.53D-02
 Coeff-Com:  0.200D+00 0.800D+00
 Coeff-En:   0.511D+00 0.489D+00
 Coeff:      0.205D+00 0.795D+00
 Gap=     0.125 Goal=   None    Shift=    0.000
 RMSDP=2.19D-04 MaxDP=8.61D-03 DE= 4.09D-05 OVMax= 1.89D-02

 Cycle   3  Pass 1  IDiag  1:
 RMSU=  2.01D-04    CP:  9.99D-01  5.23D-01
 E= -7517.81875325383     Delta-E=        0.002520790122 Rises=F Damp=F
 DIIS: error= 2.22D-03 at cycle   3 NSaved=   3.
 NSaved= 3 IEnMin= 1 EnMin= -7517.82131492793     IErMin= 2 ErrMin= 1.53D-03
 ErrMax= 2.22D-03  0.00D+00 EMaxC= 1.00D-01 BMatC= 4.18D-03 BMatP= 1.59D-03
 IDIUse=3 WtCom= 1.75D-01 WtEn= 8.25D-01
 Coeff-Com:  0.105D-01 0.616D+00 0.374D+00
 Coeff-En:   0.000D+00 0.689D+00 0.311D+00
 Coeff:      0.184D-02 0.676D+00 0.322D+00
 Gap=     0.126 Goal=   None    Shift=    0.000
 RMSDP=1.30D-04 MaxDP=4.59D-03 DE= 2.52D-03 OVMax= 1.45D-02

 Cycle   4  Pass 1  IDiag  1:
 RMSU=  5.46D-05    CP:  9.99D-01  7.86D-01  4.58D-01
 E= -7517.82230799866     Delta-E=       -0.003554744830 Rises=F Damp=F
 DIIS: error= 6.42D-04 at cycle   4 NSaved=   4.
 NSaved= 4 IEnMin= 4 EnMin= -7517.82230799866     IErMin= 4 ErrMin= 6.42D-04
 ErrMax= 6.42D-04  0.00D+00 EMaxC= 1.00D-01 BMatC= 3.27D-04 BMatP= 1.59D-03
 IDIUse=3 WtCom= 9.94D-01 WtEn= 6.42D-03
 Coeff-Com:  0.200D-03 0.454D+00 0.228D+00 0.317D+00
 Coeff-En:   0.000D+00 0.150D+00 0.000D+00 0.850D+00
 Coeff:      0.199D-03 0.452D+00 0.227D+00 0.321D+00
 Gap=     0.126 Goal=   None    Shift=    0.000
 RMSDP=4.48D-05 MaxDP=2.04D-03 DE=-3.55D-03 OVMax= 4.39D-03

 Cycle   5  Pass 1  IDiag  1:
 RMSU=  1.38D-05    CP:  9.99D-01  8.56D-01  4.21D-01  2.74D-01
 E= -7517.82258152010     Delta-E=       -0.000273521440 Rises=F Damp=F
 DIIS: error= 1.04D-04 at cycle   5 NSaved=   5.
 NSaved= 5 IEnMin= 5 EnMin= -7517.82258152010     IErMin= 5 ErrMin= 1.04D-04
 ErrMax= 1.04D-04  0.00D+00 EMaxC= 1.00D-01 BMatC= 1.27D-05 BMatP= 3.27D-04
 IDIUse=3 WtCom= 9.99D-01 WtEn= 1.04D-03
 Coeff-Com: -0.954D-03 0.225D+00 0.104D+00 0.214D+00 0.458D+00
 Coeff-En:   0.000D+00 0.000D+00 0.000D+00 0.000D+00 0.100D+01
 Coeff:     -0.953D-03 0.225D+00 0.104D+00 0.214D+00 0.458D+00
 Gap=     0.126 Goal=   None    Shift=    0.000
 RMSDP=9.31D-06 MaxDP=4.64D-04 DE=-2.74D-04 OVMax= 9.65D-04

 Cycle   6  Pass 1  IDiag  1:
 RMSU=  3.90D-06    CP:  9.99D-01  8.64D-01  4.12D-01  3.84D-01  6.36D-01
 E= -7517.82259381339     Delta-E=       -0.000012293294 Rises=F Damp=F
 DIIS: error= 1.79D-05 at cycle   6 NSaved=   6.
 NSaved= 6 IEnMin= 6 EnMin= -7517.82259381339     IErMin= 6 ErrMin= 1.79D-05
 ErrMax= 1.79D-05  0.00D+00 EMaxC= 1.00D-01 BMatC= 4.70D-07 BMatP= 1.27D-05
 IDIUse=1 WtCom= 1.00D+00 WtEn= 0.00D+00
 Coeff-Com: -0.478D-03 0.848D-01 0.400D-01 0.863D-01 0.233D+00 0.556D+00
 Coeff:     -0.478D-03 0.848D-01 0.400D-01 0.863D-01 0.233D+00 0.556D+00
 Gap=     0.126 Goal=   None    Shift=    0.000
 RMSDP=2.99D-06 MaxDP=1.30D-04 DE=-1.23D-05 OVMax= 3.64D-04

 Cycle   7  Pass 1  IDiag  1:
 RMSU=  2.46D-06    CP:  9.99D-01  8.67D-01  4.15D-01  3.79D-01  7.05D-01
                    CP:  7.34D-01
 E= -7517.82259393817     Delta-E=       -0.000000124779 Rises=F Damp=F
 DIIS: error= 1.89D-05 at cycle   7 NSaved=   7.
 NSaved= 7 IEnMin= 7 EnMin= -7517.82259393817     IErMin= 6 ErrMin= 1.79D-05
 ErrMax= 1.89D-05  0.00D+00 EMaxC= 1.00D-01 BMatC= 3.42D-07 BMatP= 4.70D-07
 IDIUse=1 WtCom= 1.00D+00 WtEn= 0.00D+00
 Coeff-Com: -0.171D-03 0.156D-01 0.843D-02 0.211D-01 0.839D-01 0.463D+00
 Coeff-Com:  0.408D+00
 Coeff:     -0.171D-03 0.156D-01 0.843D-02 0.211D-01 0.839D-01 0.463D+00
 Coeff:      0.408D+00
 Gap=     0.126 Goal=   None    Shift=    0.000
 RMSDP=2.01D-06 MaxDP=8.06D-05 DE=-1.25D-07 OVMax= 2.41D-04

 Cycle   8  Pass 1  IDiag  1:
 RMSU=  1.00D-06    CP:  9.99D-01  8.69D-01  4.17D-01  3.80D-01  7.15D-01
                    CP:  9.89D-01  4.50D-01
 E= -7517.82259429295     Delta-E=       -0.000000354776 Rises=F Damp=F
 DIIS: error= 7.63D-06 at cycle   8 NSaved=   8.
 NSaved= 8 IEnMin= 8 EnMin= -7517.82259429295     IErMin= 8 ErrMin= 7.63D-06
 ErrMax= 7.63D-06  0.00D+00 EMaxC= 1.00D-01 BMatC= 7.06D-08 BMatP= 3.42D-07
 IDIUse=1 WtCom= 1.00D+00 WtEn= 0.00D+00
 Coeff-Com:  0.492D-06-0.133D-01-0.519D-02-0.778D-02-0.609D-03 0.227D+00
 Coeff-Com:  0.336D+00 0.463D+00
 Coeff:      0.492D-06-0.133D-01-0.519D-02-0.778D-02-0.609D-03 0.227D+00
 Coeff:      0.336D+00 0.463D+00
 Gap=     0.126 Goal=   None    Shift=    0.000
 RMSDP=7.62D-07 MaxDP=5.04D-05 DE=-3.55D-07 OVMax= 8.89D-05

 Cycle   9  Pass 1  IDiag  1:
 RMSU=  2.80D-07    CP:  9.99D-01  8.69D-01  4.17D-01  3.83D-01  7.24D-01
                    CP:  1.01D+00  6.21D-01  5.10D-01
 E= -7517.82259437153     Delta-E=       -0.000000078582 Rises=F Damp=F
 DIIS: error= 1.41D-06 at cycle   9 NSaved=   9.
 NSaved= 9 IEnMin= 9 EnMin= -7517.82259437153     IErMin= 9 ErrMin= 1.41D-06
 ErrMax= 1.41D-06  0.00D+00 EMaxC= 1.00D-01 BMatC= 3.33D-09 BMatP= 7.06D-08
 IDIUse=1 WtCom= 1.00D+00 WtEn= 0.00D+00
 Coeff-Com:  0.192D-04-0.922D-02-0.378D-02-0.640D-02-0.100D-01 0.800D-01
 Coeff-Com:  0.150D+00 0.268D+00 0.531D+00
 Coeff:      0.192D-04-0.922D-02-0.378D-02-0.640D-02-0.100D-01 0.800D-01
 Coeff:      0.150D+00 0.268D+00 0.531D+00
 Gap=     0.126 Goal=   None    Shift=    0.000
 RMSDP=1.89D-07 MaxDP=1.14D-05 DE=-7.86D-08 OVMax= 3.15D-05

 Cycle  10  Pass 1  IDiag  1:
 RMSU=  1.20D-07    CP:  9.99D-01  8.69D-01  4.18D-01  3.84D-01  7.30D-01
                    CP:  1.01D+00  6.22D-01  5.88D-01  7.87D-01
 E= -7517.82259437406     Delta-E=       -0.000000002530 Rises=F Damp=F
 DIIS: error= 7.66D-07 at cycle  10 NSaved=  10.
 NSaved=10 IEnMin=10 EnMin= -7517.82259437406     IErMin=10 ErrMin= 7.66D-07
 ErrMax= 7.66D-07  0.00D+00 EMaxC= 1.00D-01 BMatC= 4.04D-10 BMatP= 3.33D-09
 IDIUse=1 WtCom= 1.00D+00 WtEn= 0.00D+00
 Coeff-Com:  0.112D-04-0.467D-02-0.191D-02-0.329D-02-0.621D-02 0.339D-01
 Coeff-Com:  0.682D-01 0.130D+00 0.331D+00 0.453D+00
 Coeff:      0.112D-04-0.467D-02-0.191D-02-0.329D-02-0.621D-02 0.339D-01
 Coeff:      0.682D-01 0.130D+00 0.331D+00 0.453D+00
 Gap=     0.126 Goal=   None    Shift=    0.000
 RMSDP=9.56D-08 MaxDP=3.30D-06 DE=-2.53D-09 OVMax= 1.14D-05

 Cycle  11  Pass 1  IDiag  1:
 RMSU=  7.33D-08    CP:  9.99D-01  8.69D-01  4.18D-01  3.84D-01  7.31D-01
                    CP:  1.02D+00  6.24D-01  5.95D-01  8.90D-01  5.84D-01
 E= -7517.82259437431     Delta-E=       -0.000000000244 Rises=F Damp=F
 DIIS: error= 5.96D-07 at cycle  11 NSaved=  11.
 NSaved=11 IEnMin=11 EnMin= -7517.82259437431     IErMin=11 ErrMin= 5.96D-07
 ErrMax= 5.96D-07  0.00D+00 EMaxC= 1.00D-01 BMatC= 2.57D-10 BMatP= 4.04D-10
 IDIUse=1 WtCom= 1.00D+00 WtEn= 0.00D+00
 Coeff-Com:  0.499D-06 0.356D-03 0.166D-03 0.231D-03-0.897D-03-0.938D-02
 Coeff-Com: -0.136D-01-0.158D-01 0.520D-01 0.467D+00 0.520D+00
 Coeff:      0.499D-06 0.356D-03 0.166D-03 0.231D-03-0.897D-03-0.938D-02
 Coeff:     -0.136D-01-0.158D-01 0.520D-01 0.467D+00 0.520D+00
 Gap=     0.126 Goal=   None    Shift=    0.000
 RMSDP=5.44D-08 MaxDP=1.93D-06 DE=-2.44D-10 OVMax= 7.76D-06

 Cycle  12  Pass 1  IDiag  1:
 RMSU=  1.65D-08    CP:  9.99D-01  8.69D-01  4.18D-01  3.84D-01  7.31D-01
                    CP:  1.02D+00  6.28D-01  5.98D-01  9.19D-01  8.85D-01
                    CP:  6.30D-01
 E= -7517.82259437479     Delta-E=       -0.000000000484 Rises=F Damp=F
 DIIS: error= 5.21D-08 at cycle  12 NSaved=  12.
 NSaved=12 IEnMin=12 EnMin= -7517.82259437479     IErMin=12 ErrMin= 5.21D-08
 ErrMax= 5.21D-08  0.00D+00 EMaxC= 1.00D-01 BMatC= 6.00D-12 BMatP= 2.57D-10
 IDIUse=1 WtCom= 1.00D+00 WtEn= 0.00D+00
 Coeff-Com: -0.528D-06 0.502D-03 0.219D-03 0.340D-03 0.924D-05-0.689D-02
 Coeff-Com: -0.116D-01-0.168D-01 0.249D-02 0.205D+00 0.263D+00 0.564D+00
 Coeff:     -0.528D-06 0.502D-03 0.219D-03 0.340D-03 0.924D-05-0.689D-02
 Coeff:     -0.116D-01-0.168D-01 0.249D-02 0.205D+00 0.263D+00 0.564D+00
 Gap=     0.126 Goal=   None    Shift=    0.000
 RMSDP=9.78D-09 MaxDP=5.16D-07 DE=-4.84D-10 OVMax= 1.71D-06

 SCF Done:  E(RPBE1PBE) =  -7517.82259437     A.U. after   12 cycles
            NFock= 12  Conv=0.98D-08     -V/T= 2.1284
 KE= 6.662156720958D+03 PE=-2.481230531199D+04 EE= 7.021843893495D+03
 Leave Link  502 at Tue Mar  6 12:22:54 2018, MaxMem=   536870912 cpu:      2100.5
 (Enter /share/apps//mg09/l701.exe)
 Compute integral first derivatives.
 ... and contract with generalized density number  0.
   1 Symmetry operations used in ECPInt.
 ECPInt:  NShTT=   10440 NPrTT=   41973 LenC2=    9705 LenP2D=   27599.
 LDataN:  DoStor=T MaxTD1= 9 Len=  602
 Leave Link  701 at Tue Mar  6 12:23:11 2018, MaxMem=   536870912 cpu:        66.3
 (Enter /share/apps//mg09/l702.exe)
 L702 exits ... SP integral derivatives will be done elsewhere.
 Leave Link  702 at Tue Mar  6 12:23:11 2018, MaxMem=   536870912 cpu:         0.1
 (Enter /share/apps//mg09/l703.exe)
 Compute integral first derivatives, UseDBF=F ICtDFT=           0.
 Integral derivatives from FoFJK, PRISM(SPDF).
 Calling FoFJK, ICntrl=      2127 FMM=F ISym2X=0 I1Cent= 0 IOpClX= 0 NMat=1 NMatS=1 NMatT=0.
 FoFJK:  IHMeth= 1 ICntrl=    2127 DoSepK=F KAlg= 0 I1Cent=   0 FoldK=F
 IRaf=         0 NMat=   1 IRICut=       1 DoRegI=T DoRafI=F ISym2E= 0.
 FoFCou: FMM=F IPFlag=           0 FMFlag=      100000 FMFlg1=         800
         NFxFlg=           0 DoJE=F BraDBF=F KetDBF=F FulRan=T
         wScrn=  0.000000 ICntrl=    2127 IOpCl=  0 I1Cent=           0 NGrid=           0
         NMat0=    1 NMatS0=      1 NMatT0=    0 NMatD0=    1 NMtDS0=    0 NMtDT0=    0
 Symmetry not used in FoFCou.
 Defaulting to unpruned grid for atomic number  83.
 Defaulting to unpruned grid for atomic number  83.
 Defaulting to unpruned grid for atomic number  83.
 Defaulting to unpruned grid for atomic number  83.
 Leave Link  703 at Tue Mar  6 12:26:30 2018, MaxMem=   536870912 cpu:       795.7
 (Enter /share/apps//mg09/l716.exe)
 Dipole        =-5.49392167D-02 6.03409320D-01 2.35591133D-01
 ***** Axes restored to original set *****
 -------------------------------------------------------------------
 Center     Atomic                   Forces (Hartrees/Bohr)
 Number     Number              X              Y              Z
 -------------------------------------------------------------------
      1       83           0.003174224   -0.001664475    0.000870264
      2       32           0.002939598    0.005875384   -0.004836097
      3       32           0.002260829   -0.004804221   -0.005744552
      4       32           0.000120890    0.006337527    0.004829842
      5       50          -0.007302410    0.000937381   -0.001713241
      6       83          -0.001650939   -0.001950066    0.000161490
      7       50           0.001157245   -0.002847040    0.003798592
      8       83          -0.000822424   -0.001238863    0.002045526
      9       83           0.000122988   -0.000645627    0.000588175
 -------------------------------------------------------------------
 Cartesian Forces:  Max     0.007302410 RMS     0.003331064
 Leave Link  716 at Tue Mar  6 12:26:30 2018, MaxMem=   536870912 cpu:         0.1
 (Enter /share/apps//mg09/l103.exe)

 GradGradGradGradGradGradGradGradGradGradGradGradGradGradGradGradGradGrad
 Berny optimization.
 Search for a local minimum.
 Step number   2 out of a maximum of  100
 All quantities printed in internal units (Hartrees-Bohrs-Radians)
 Update second derivatives using D2CorN and points    1    2
 DE= -5.77D-03 DEPred=-4.23D-03 R= 1.36D+00
 TightC=F SS=  1.41D+00  RLast= 2.22D-01 DXNew= 5.0454D-01 6.6552D-01
 Trust test= 1.36D+00 RLast= 2.22D-01 DXMaxT set to 5.05D-01
 ITU=  1  0
     Eigenvalues ---    0.07627   0.09436   0.12070   0.12223   0.12725
     Eigenvalues ---    0.13006   0.14088   0.14882   0.15966   0.16531
     Eigenvalues ---    0.18056   0.21387   0.21883   0.23051   0.24836
     Eigenvalues ---    0.25210   0.26571   0.28783   0.29410   0.31106
     Eigenvalues ---    0.32030
 RFO step:  Lambda=-4.99362066D-04 EMin= 7.62734866D-02
 Quartic linear search produced a step of  0.62540.
 TrRot=  0.000200  0.000160 -0.000117  0.000009  0.000013  0.000009
 MatCor failed.
 Variable       Old X    -DE/DX   Delta X   Delta X   Delta X     New X
                                 (Linear)    (Quad)   (Total)
    X1       -4.45637   0.00317   0.03675  -0.00822   0.02877  -4.42760
    Y1       -1.50975  -0.00166   0.00480  -0.00666  -0.00178  -1.51153
    Z1        0.20220   0.00087   0.00097   0.00217   0.00308   0.20528
    X2       -1.31602   0.00294   0.01969   0.00438   0.02439  -1.29163
    Y2       -4.26473   0.00588   0.04231   0.00734   0.04979  -4.21494
    Z2        3.41840  -0.00484  -0.03617  -0.00812  -0.04439   3.37401
    X3       -0.97536   0.00226   0.01151   0.00347   0.01523  -0.96013
    Y3        0.71905  -0.00480  -0.02559  -0.00997  -0.03542   0.68363
    Z3        4.48010  -0.00574  -0.03882  -0.00686  -0.04579   4.43432
    X4       -0.10947   0.00012  -0.00055   0.00104   0.00076  -0.10871
    Y4       -4.51387   0.00634   0.03934   0.00852   0.04802  -4.46585
    Z4       -1.63846   0.00483   0.02859   0.00863   0.03711  -1.60135
    X5        3.58637  -0.00730  -0.04585  -0.01017  -0.05574   3.53063
    Y5       -2.63997   0.00094   0.01522  -0.00175   0.01370  -2.62627
    Z5        2.54296  -0.00171  -0.02112   0.00008  -0.02120   2.52176
    X6        3.63068  -0.00165  -0.03130   0.01070  -0.02042   3.61025
    Y6       -0.75151  -0.00195   0.00052  -0.00994  -0.00919  -0.76070
    Z6       -2.84335   0.00016   0.02558  -0.01330   0.01211  -2.83124
    X7       -1.69798   0.00116   0.01509  -0.00605   0.00919  -1.68880
    Y7        0.19902  -0.00285  -0.01598  -0.01516  -0.03102   0.16800
    Z7       -4.52414   0.00380   0.04522  -0.00443   0.04069  -4.48345
    X8        2.98203  -0.00082  -0.02374   0.01371  -0.00987   2.97215
    Y8        2.98385  -0.00124  -0.02863   0.01032  -0.01809   2.96576
    Z8        1.47516   0.00205  -0.00608   0.02037   0.01413   1.48930
    X9       -2.37885   0.00012   0.01840  -0.01082   0.00771  -2.37114
    Y9        3.80057  -0.00065  -0.03200   0.01587  -0.01601   3.78456
[...]
      X        X            X      X         X                                                                                       
      X        X                   X                                                                                                 
      X        X                   X                                                                                                 
      X        X                   X                                                                                                 
      X        X                   X                                                                                                 
      X                            X                                                                                                 
      X                            X                                                                                                 
      X                            X                                                                                                 
      X                            X                                                                                                 
      X                            X                                                                                                 
                                   X                                                                                                 
                                   X                                                                                                 
                                   X                                                                                                 
                                   X                                                                                                 
                                   X                                                                                                 
 
 ***** Axes restored to original set *****
 -------------------------------------------------------------------
 Center     Atomic                   Forces (Hartrees/Bohr)
 Number     Number              X              Y              Z
 -------------------------------------------------------------------
      1       83           0.000055667    0.000031979    0.000041728
      2       32          -0.000023486   -0.000048522   -0.000028535
      3       32           0.000025186   -0.000008053    0.000039966
      4       32           0.000040713    0.000009248   -0.000054905
      5       50          -0.000014719   -0.000002325    0.000071532
      6       83          -0.000052847   -0.000017987    0.000026264
      7       50          -0.000002491    0.000047240   -0.000028848
      8       83          -0.000012373    0.000004967   -0.000023982
      9       83          -0.000015650   -0.000016548   -0.000043220
 -------------------------------------------------------------------
 Cartesian Forces:  Max     0.000071532 RMS     0.000034422
 Force constants in Cartesian coordinates: 
                1             2             3             4             5 
      1  0.826078D-01
      2  0.171033D-02  0.670154D-01
      3  0.237948D-02 -0.160754D-01  0.524413D-01
      4 -0.219846D-01  0.151974D-01 -0.188500D-01  0.701388D-01
      5  0.134911D-01 -0.132814D-01  0.160542D-01  0.502197D-02  0.632460D-01
      6 -0.174766D-01  0.170650D-01 -0.171485D-01  0.292631D-02 -0.213387D-01
      7 -0.567297D-02 -0.599025D-02 -0.375860D-02 -0.220732D-02 -0.430527D-02
      8 -0.442961D-02 -0.195982D-04 -0.227050D-02 -0.222484D-02 -0.312497D-01
      9 -0.363833D-02 -0.478652D-02 -0.867939D-02  0.119250D-02 -0.323842D-02
     10 -0.175428D-01  0.109279D-01  0.959429D-02 -0.252250D-02 -0.135661D-02
     11  0.837848D-02 -0.106220D-01 -0.464634D-02 -0.139370D-02 -0.334371D-02
     12  0.796303D-02 -0.489571D-02 -0.102533D-02  0.541679D-02 -0.166630D-02
     13 -0.628424D-02  0.361517D-02 -0.392229D-02 -0.392181D-01 -0.120220D-01
     14  0.145694D-03 -0.448788D-02 -0.110400D-02 -0.167464D-01 -0.396577D-02
     15 -0.809231D-03 -0.151827D-02 -0.304981D-02  0.830288D-02  0.503857D-02
     16 -0.385590D-02  0.179828D-03  0.360272D-02 -0.168541D-02 -0.248398D-03
     17 -0.173061D-02 -0.199011D-02 -0.118964D-02 -0.304189D-02 -0.167871D-02
     18 -0.441630D-03 -0.190560D-03  0.104465D-02  0.168727D-02 -0.484836D-03
     19 -0.131672D-01 -0.388540D-02  0.143770D-01  0.250398D-03  0.222619D-03
     20 -0.335713D-02  0.395749D-03  0.100057D-01  0.160629D-02 -0.272416D-02
     21  0.131549D-01  0.865343D-02 -0.249555D-01 -0.118621D-02 -0.481927D-03
     22 -0.381174D-02 -0.778234D-02 -0.881762D-03 -0.345055D-02  0.571609D-03
     23 -0.256397D-03  0.207191D-02 -0.329083D-03 -0.161748D-02 -0.327468D-02
     24  0.112132D-02 -0.143918D-02 -0.169975D-02  0.189852D-02  0.226293D-02
     25 -0.102883D-01 -0.139726D-01 -0.254081D-02  0.679269D-03 -0.137508D-02
     26 -0.139519D-01 -0.390820D-01 -0.444953D-03  0.319863D-02 -0.372787D-02
     27 -0.225298D-02  0.318717D-02  0.307230D-02 -0.138806D-02  0.385440D-02
                6             7             8             9            10 
      6  0.564432D-01
      7 -0.299332D-03  0.358076D-01
      8 -0.670627D-02  0.524745D-02  0.551717D-01
      9 -0.454262D-02 -0.106026D-01  0.214097D-02  0.616873D-01
     10  0.707627D-02 -0.495608D-02  0.177411D-02  0.567843D-03  0.454388D-01
     11  0.202095D-02 -0.549212D-03 -0.372736D-02 -0.105214D-02  0.441332D-02
     12 -0.259637D-01 -0.820078D-03 -0.664575D-02 -0.499246D-02 -0.964403D-02
     13  0.535117D-02 -0.656752D-02  0.734072D-02  0.156357D-02 -0.541066D-02
     14  0.407098D-02  0.831598D-02 -0.277078D-02 -0.127524D-02 -0.268562D-02
     15 -0.372396D-03  0.439439D-02 -0.296884D-02 -0.496497D-02 -0.936123D-02
     16  0.214196D-03  0.211405D-03  0.179269D-02 -0.138041D-02 -0.167205D-01
     17  0.174219D-02  0.590675D-02  0.417691D-03 -0.124962D-02 -0.162927D-01
     18 -0.328400D-02  0.592954D-02  0.227367D-02 -0.607229D-02  0.817764D-02
     19  0.181007D-02 -0.120079D-02 -0.178459D-02  0.330733D-02  0.150565D-02
     20  0.204689D-02 -0.261817D-02  0.232275D-02 -0.333038D-02  0.460019D-02
     21 -0.294782D-02 -0.257080D-02  0.205884D-02 -0.623520D-02 -0.396558D-02
     22 -0.666188D-03 -0.158947D-01 -0.110289D-01  0.125620D-01  0.125193D-02
     23 -0.289867D-03 -0.117176D-01 -0.102034D-01  0.428428D-02 -0.338832D-02
     24 -0.178198D-02  0.131184D-01  0.617206D-02 -0.993906D-02 -0.646981D-02
     25  0.106410D-02  0.480433D-03  0.331295D-02 -0.357194D-02 -0.104380D-02
     26  0.138874D-02  0.571037D-02 -0.994136D-02  0.850707D-02  0.200780D-02
     27 -0.402135D-03 -0.539096D-02  0.594582D-02 -0.162613D-01  0.402460D-02
               11            12            13            14            15 
     11  0.610274D-01
     12  0.642161D-02  0.530344D-01
     13 -0.136815D-02 -0.718797D-02  0.679134D-01
     14 -0.401511D-02 -0.513194D-02  0.241138D-02  0.511125D-01
     15 -0.222869D-02 -0.742084D-02  0.395718D-02 -0.177273D-01  0.502460D-01
     16 -0.141200D-01  0.757154D-02 -0.387274D-02  0.466340D-03  0.111158D-02
     17 -0.161185D-01  0.568292D-02 -0.427657D-03 -0.131509D-02  0.119864D-01
     18  0.230911D-02 -0.500742D-02  0.164470D-02  0.120870D-01 -0.329584D-01
     19  0.424162D-02 -0.278331D-02 -0.920559D-03  0.203577D-03 -0.632704D-02
     20 -0.107147D-01  0.680717D-02  0.495016D-03 -0.288927D-02  0.188576D-02
     21  0.487929D-02 -0.782425D-02 -0.168423D-03 -0.378347D-03 -0.175663D-02
     22  0.286456D-02 -0.959516D-03 -0.291990D-02  0.138374D-02 -0.236398D-02
     23 -0.697336D-02 -0.529366D-03  0.283411D-03 -0.322322D-01  0.519708D-02
     24 -0.353209D-02 -0.128426D-02 -0.915768D-03  0.548117D-02  0.302306D-02
     25 -0.246690D-02  0.443539D-03 -0.271972D-02  0.650532D-02  0.109545D-02
     26 -0.551262D-02 -0.426346D-04 -0.327938D-03  0.563588D-03  0.335323D-03
     27 -0.417169D-02  0.483898D-03 -0.322181D-03  0.397775D-02 -0.274596D-02
               16            17            18            19            20 
     16  0.701910D-01
     17  0.613402D-02  0.416431D-01
     18 -0.108790D-01 -0.548082D-03  0.756918D-01
     19 -0.377974D-01  0.418666D-02 -0.104797D-01  0.540020D-01
     20  0.576609D-02 -0.833930D-03  0.405505D-02 -0.724531D-02  0.298208D-01
     21 -0.829825D-02  0.326986D-02 -0.624209D-02  0.155575D-02 -0.610286D-02
     22 -0.292379D-02  0.245619D-03  0.516276D-02 -0.174617D-02 -0.130790D-02
     23  0.808490D-03 -0.184737D-01 -0.191779D-01  0.562440D-03 -0.232287D-04
     24  0.616944D-02 -0.149525D-01 -0.226687D-01 -0.377017D-02 -0.414167D-02
     25 -0.354660D-02  0.501986D-02 -0.801575D-03 -0.925900D-03  0.206091D-02
     26 -0.779027D-03 -0.165070D-02 -0.323369D-03  0.349838D-02 -0.153541D-01
     27  0.188816D-02 -0.474154D-02 -0.503447D-03  0.231014D-02 -0.112256D-01
               21            22            23            24            25 
     21  0.714723D-01
     22  0.211399D-03  0.777202D-01
     23  0.654396D-03  0.852419D-02  0.753857D-01
     24 -0.238259D-02  0.166263D-02  0.660190D-02  0.393418D-01
     25  0.126717D-02 -0.482253D-01  0.680131D-02 -0.128146D-01  0.655899D-01
     26 -0.125527D-01  0.652940D-02 -0.627700D-02  0.354737D-02 -0.588574D-02
     27 -0.191282D-01 -0.147273D-01  0.358860D-02 -0.260845D-02  0.158586D-01
               26            27 
     26  0.809820D-01
     27 -0.414861D-03  0.380933D-01
 Leave Link  716 at Tue Mar  6 14:39:49 2018, MaxMem=   536870912 cpu:         0.1
 (Enter /share/apps//mg09/l103.exe)

 GradGradGradGradGradGradGradGradGradGradGradGradGradGradGradGradGradGrad
 Berny optimization.
 Search for a local minimum.
 Step number   1 out of a maximum of    2
 All quantities printed in internal units (Hartrees-Bohrs-Radians)
 Second derivative matrix not updated -- analytic derivatives used.
 ITU=  0
     Eigenvalues ---    0.01054   0.01886   0.03003   0.03627   0.04432
     Eigenvalues ---    0.04465   0.05080   0.05652   0.05813   0.06077
     Eigenvalues ---    0.06272   0.07693   0.07905   0.08374   0.10183
     Eigenvalues ---    0.11319   0.11671   0.12995   0.13348   0.13975
     Eigenvalues ---    0.14268
 Angle between quadratic step and forces=  33.40 degrees.
 Linear search not attempted -- first point.
 TrRot=  0.000024 -0.000048 -0.000035  0.000001  0.000005  0.000001
 Variable       Old X    -DE/DX   Delta X   Delta X   Delta X     New X
                                 (Linear)    (Quad)   (Total)
    X1       -4.46369   0.00006   0.00000   0.00077   0.00080  -4.46289
    Y1       -1.50242   0.00003   0.00000   0.00098   0.00092  -1.50149
    Z1        0.22087   0.00004   0.00000   0.00120   0.00119   0.22206
    X2       -1.30229  -0.00002   0.00000  -0.00014  -0.00009  -1.30238
    Y2       -4.22405  -0.00005   0.00000  -0.00162  -0.00167  -4.22573
    Z2        3.36314  -0.00003   0.00000  -0.00117  -0.00120   3.36194
    X3       -0.93818   0.00003   0.00000   0.00113   0.00118  -0.93700
    Y3        0.65554  -0.00001   0.00000  -0.00060  -0.00065   0.65489
    Z3        4.40491   0.00004   0.00000   0.00069   0.00066   4.40557
    X4       -0.09192   0.00004   0.00000   0.00025   0.00028  -0.09164
    Y4       -4.42712   0.00001   0.00000   0.00005   0.00000  -4.42712
    Z4       -1.57961  -0.00005   0.00000  -0.00096  -0.00100  -1.58061
    X5        3.51199  -0.00001   0.00000  -0.00062  -0.00058   3.51142
    Y5       -2.62403   0.00000   0.00000   0.00124   0.00120  -2.62283
    Z5        2.51514   0.00007   0.00000   0.00265   0.00260   2.51774
    X6        3.62954  -0.00005   0.00000  -0.00059  -0.00058   3.62896
    Y6       -0.75611  -0.00002   0.00000  -0.00128  -0.00132  -0.75743
    Z6       -2.84514   0.00003   0.00000   0.00061   0.00055  -2.84458
    X7       -1.69357   0.00000   0.00000  -0.00015  -0.00016  -1.69372
    Y7        0.12701   0.00005   0.00000   0.00082   0.00077   0.12777
    Z7       -4.47331  -0.00003   0.00000  -0.00032  -0.00035  -4.47366
    X8        2.98095  -0.00001   0.00000  -0.00048  -0.00045   2.98050
    Y8        2.98063   0.00000   0.00000   0.00055   0.00051   2.98114
    Z8        1.51016  -0.00002   0.00000  -0.00152  -0.00157   1.50859
    X9       -2.36782  -0.00002   0.00000  -0.00043  -0.00041  -2.36823
    Y9        3.79322  -0.00002   0.00000   0.00029   0.00024   3.79346
    Z9       -0.02706  -0.00004   0.00000  -0.00086  -0.00088  -0.02794
         Item               Value     Threshold  Converged?
 Maximum Force            0.000072     0.000450     YES
 RMS     Force            0.000034     0.000300     YES
 Maximum Displacement     0.002599     0.001800     NO 
 RMS     Displacement     0.000982     0.001200     YES
 Predicted change in Energy=-3.804333D-07
 GradGradGradGradGradGradGradGradGradGradGradGradGradGradGradGradGradGrad

 Leave Link  103 at Tue Mar  6 14:39:49 2018, MaxMem=   536870912 cpu:         0.1
 (Enter /share/apps//mg09/l9999.exe)
 1\1\GINC-COMPUTE-0-5\Freq\RPBE1PBE\def2TZVP\Bi4Ge3Sn2\RODRIGO\06-Mar-2
 018\0\\#P Geom=AllCheck Guess=TCheck SCRF=Check GenChk RPBE1PBE/def2TZ
 VP Freq\\01Final_coords.xyz_14\\0,1\Bi,-2.3620812588,-0.7950444834,0.1
 168799342\Ge,-0.6891419638,-2.2352735424,1.7796994307\Ge,-0.4964610855
 ,0.3468946684,2.3309781379\Ge,-0.0486410492,-2.342731105,-0.8358951486
 \Sn,1.8584671625,-1.3885753065,1.3309559434\Bi,1.9206701413,-0.4001153
 179,-1.5055811339\Sn,-0.8961964567,0.067210003,-2.3671754126\Bi,1.5774
 516179,1.5772797908,0.7991424943\Bi,-1.2529971077,2.007284293,-0.01431
 92455\\Version=ES64L-G09RevD.01\State=1-A\HF=-7517.8242648\RMSD=5.515e
 -09\RMSF=3.442e-05\ZeroPoint=0.0058574\Thermal=0.0232945\Dipole=0.0423
 886,0.6327785,-0.2410043\DipoleDeriv=0.1031529,0.0585168,-0.0110695,0.
 0733263,0.0023679,0.0380929,-0.0419442,0.0062534,0.0149601,-0.1652582,
 0.1064599,-0.0985922,0.0859041,0.0191473,-0.1896919,-0.0548594,-0.1289
 003,-0.0584815,0.0056409,-0.0104928,-0.0444696,-0.0162921,-0.0157424,0
 .0549273,0.0299497,0.0270687,0.0081604,-0.0269781,-0.0021114,0.0067427
 ,-0.0159889,0.0371846,0.0663804,-0.015022,0.0695771,-0.0829561,0.20192
 41,-0.1596514,0.1454914,-0.1034305,0.0720872,-0.055419,0.071897,-0.038
 3546,0.1186143,-0.0590566,-0.0357935,-0.1846615,-0.0350092,-0.0547264,
 0.0669233,-0.0792427,0.0554982,-0.1467766,0.0143605,-0.0008751,0.13612
 8,0.0179771,0.0169437,-0.0040713,0.127767,-0.0191394,0.2798567,-0.0446
 574,0.1227491,0.0723295,0.0436908,-0.0306404,0.0487124,0.0464692,0.015
 0878,0.0295737,-0.029128,-0.0788016,-0.0218988,-0.0501774,-0.0466215,-
 0.025854,-0.0850147,0.0129091,-0.162951\Polar=383.1643815,-5.9534451,3
 70.1550801,8.7968259,-8.7306265,379.442591\PG=C01 [X(Bi4Ge3Sn2)]\NImag
 =0\\0.08260779,0.00171033,0.06701537,0.00237948,-0.01607540,0.05244131
 ,-0.02198458,0.01519742,-0.01884999,0.07013878,0.01349112,-0.01328144,
 0.01605424,0.00502197,0.06324601,-0.01747660,0.01706504,-0.01714851,0.
 00292631,-0.02133866,0.05644321,-0.00567297,-0.00599025,-0.00375860,-0
 .00220732,-0.00430527,-0.00029933,0.03580755,-0.00442961,-0.00001960,-
 0.00227050,-0.00222484,-0.03124967,-0.00670627,0.00524745,0.05517172,-
 0.00363833,-0.00478652,-0.00867939,0.00119250,-0.00323842,-0.00454262,
 -0.01060256,0.00214097,0.06168729,-0.01754284,0.01092787,0.00959429,-0
 .00252250,-0.00135661,0.00707627,-0.00495608,0.00177411,0.00056784,0.0
 4543884,0.00837848,-0.01062203,-0.00464634,-0.00139370,-0.00334371,0.0
 0202095,-0.00054921,-0.00372736,-0.00105214,0.00441332,0.06102740,0.00
 796303,-0.00489571,-0.00102533,0.00541679,-0.00166630,-0.02596375,-0.0
 0082008,-0.00664575,-0.00499246,-0.00964403,0.00642161,0.05303442,-0.0
 0628424,0.00361517,-0.00392229,-0.03921809,-0.01202195,0.00535117,-0.0
 0656752,0.00734072,0.00156357,-0.00541066,-0.00136815,-0.00718797,0.06
 791343,0.00014569,-0.00448788,-0.00110400,-0.01674640,-0.00396577,0.00
 407098,0.00831598,-0.00277078,-0.00127524,-0.00268562,-0.00401511,-0.0
 0513194,0.00241138,0.05111254,-0.00080923,-0.00151827,-0.00304981,0.00
 830288,0.00503857,-0.00037240,0.00439439,-0.00296884,-0.00496497,-0.00
 936123,-0.00222869,-0.00742084,0.00395718,-0.01772733,0.05024599,-0.00
 385590,0.00017983,0.00360272,-0.00168541,-0.00024840,0.00021420,0.0002
 1140,0.00179269,-0.00138041,-0.01672053,-0.01412003,0.00757154,-0.0038
 7274,0.00046634,0.00111158,0.07019099,-0.00173061,-0.00199011,-0.00118
 964,-0.00304189,-0.00167871,0.00174219,0.00590675,0.00041769,-0.001249
 62,-0.01629275,-0.01611852,0.00568292,-0.00042766,-0.00131509,0.011986
 40,0.00613402,0.04164310,-0.00044163,-0.00019056,0.00104465,0.00168727
 ,-0.00048484,-0.00328400,0.00592954,0.00227367,-0.00607229,0.00817764,
 0.00230911,-0.00500742,0.00164470,0.01208695,-0.03295843,-0.01087897,-
 0.00054808,0.07569175,-0.01316723,-0.00388540,0.01437696,0.00025040,0.
 00022262,0.00181007,-0.00120079,-0.00178459,0.00330733,0.00150565,0.00
 424162,-0.00278331,-0.00092056,0.00020358,-0.00632704,-0.03779743,0.00
 418666,-0.01047973,0.05400203,-0.00335713,0.00039575,0.01000568,0.0016
 0629,-0.00272416,0.00204689,-0.00261817,0.00232275,-0.00333038,0.00460
 019,-0.01071468,0.00680717,0.00049502,-0.00288927,0.00188576,0.0057660
 9,-0.00083393,0.00405505,-0.00724531,0.02982083,0.01315494,0.00865343,
 -0.02495548,-0.00118621,-0.00048193,-0.00294782,-0.00257080,0.00205884
 ,-0.00623520,-0.00396558,0.00487929,-0.00782425,-0.00016842,-0.0003783
 5,-0.00175663,-0.00829825,0.00326986,-0.00624209,0.00155575,-0.0061028
 6,0.07147229,-0.00381174,-0.00778234,-0.00088176,-0.00345055,0.0005716
 1,-0.00066619,-0.01589470,-0.01102888,0.01256201,0.00125193,0.00286456
 ,-0.00095952,-0.00291990,0.00138374,-0.00236398,-0.00292379,0.00024562
 ,0.00516276,-0.00174617,-0.00130790,0.00021140,0.07772019,-0.00025640,
 0.00207191,-0.00032908,-0.00161748,-0.00327468,-0.00028987,-0.01171764
 ,-0.01020339,0.00428428,-0.00338832,-0.00697336,-0.00052937,0.00028341
 ,-0.03223223,0.00519708,0.00080849,-0.01847373,-0.01917794,0.00056244,
 -0.00002323,0.00065440,0.00852419,0.07538571,0.00112132,-0.00143918,-0
 .00169975,0.00189852,0.00226293,-0.00178198,0.01311840,0.00617206,-0.0
 0993906,-0.00646981,-0.00353209,-0.00128426,-0.00091577,0.00548117,0.0
 0302306,0.00616944,-0.01495250,-0.02266872,-0.00377017,-0.00414167,-0.
 00238259,0.00166263,0.00660190,0.03934175,-0.01028828,-0.01397264,-0.0
 0254081,0.00067927,-0.00137508,0.00106410,0.00048043,0.00331295,-0.003
 57194,-0.00104380,-0.00246690,0.00044354,-0.00271972,0.00650532,0.0010
 9545,-0.00354660,0.00501986,-0.00080157,-0.00092590,0.00206091,0.00126
 717,-0.04822526,0.00680131,-0.01281456,0.06558987,-0.01395188,-0.03908
 197,-0.00044495,0.00319863,-0.00372787,0.00138874,0.00571037,-0.009941
 36,0.00850707,0.00200780,-0.00551262,-0.00004263,-0.00032794,0.0005635
 9,0.00033532,-0.00077903,-0.00165070,-0.00032337,0.00349838,-0.0153540
 6,-0.01255269,0.00652940,-0.00627700,0.00354737,-0.00588574,0.08098199
 ,-0.00225298,0.00318717,0.00307230,-0.00138806,0.00385440,-0.00040213,
 -0.00539096,0.00594582,-0.01626130,0.00402460,-0.00417169,0.00048390,-
 0.00032218,0.00397775,-0.00274596,0.00188816,-0.00474154,-0.00050345,0
 .00231014,-0.01122564,-0.01912823,-0.01472735,0.00358860,-0.00260845,0
 .01585863,-0.00041486,0.03809334\\-0.00005567,-0.00003198,-0.00004173,
 0.00002349,0.00004852,0.00002854,-0.00002519,0.00000805,-0.00003997,-0
 .00004071,-0.00000925,0.00005491,0.00001472,0.00000232,-0.00007153,0.0
 0005285,0.00001799,-0.00002626,0.00000249,-0.00004724,0.00002885,0.000
 01237,-0.00000497,0.00002398,0.00001565,0.00001655,0.00004322\\\@


 IT CANNOT BE MY BEAUTY, FOR I HAVE NONE; AND IT CANNOT BE MY WIT,
 FOR HE HAS NOT ENOUGH TO KNOW THAT I HAVE ANY.
 -- CATHARINE SEDLEY, PUZZLED ABOUT WHY SHE WAS MISTRESS TO JAMES II
 Job cpu time:       0 days  3 hours 44 minutes 27.2 seconds.
 File lengths (MBytes):  RWF=    299 Int=      0 D2E=      0 Chk=     16 Scr=      1
 Normal termination of Gaussian 09 at Tue Mar  6 14:39:51 2018.
