 Entering Gaussian System, Link 0=/share/apps/mg09/g09
 Initial command:
 /share/apps//mg09/l1.exe "/state/partition1/gauss_tmp/Gau-4999.inp" -scrdir="/state/partition1/gauss_tmp/"
 Entering Link 1 = /share/apps//mg09/l1.exe PID=      5001.
  
 Copyright (c) 1988,1990,1992,1993,1995,1998,2003,2009,2013,
            Gaussian, Inc.  All Rights Reserved.
  
 This is part of the Gaussian(R) 09 program.  It is based on
 the Gaussian(R) 03 system (copyright 2003, Gaussian, Inc.),
 the Gaussian(R) 98 system (copyright 1998, Gaussian, Inc.),
 the Gaussian(R) 94 system (copyright 1995, Gaussian, Inc.),
 the Gaussian 92(TM) system (copyright 1992, Gaussian, Inc.),
 the Gaussian 90(TM) system (copyright 1990, Gaussian, Inc.),
 the Gaussian 88(TM) system (copyright 1988, Gaussian, Inc.),
 the Gaussian 86(TM) system (copyright 1986, Carnegie Mellon
 University), and the Gaussian 82(TM) system (copyright 1983,
 Carnegie Mellon University). Gaussian is a federally registered
 trademark of Gaussian, Inc.
  
 This software contains proprietary and confidential information,
 including trade secrets, belonging to Gaussian, Inc.
  
 This software is provided under written license and may be
 used, copied, transmitted, or stored only in accord with that
 written license.
  
 The following legend is applicable only to US Government
 contracts under FAR:
  
                    RESTRICTED RIGHTS LEGEND
  
 Use, reproduction and disclosure by the US Government is
 subject to restrictions as set forth in subparagraphs (a)
 and (c) of the Commercial Computer Software - Restricted
 Rights clause in FAR 52.227-19.
  
 Gaussian, Inc.
 340 Quinnipiac St., Bldg. 40, Wallingford CT 06492
  
  
 ---------------------------------------------------------------
 Warning -- This program may not be used in any manner that
 competes with the business of Gaussian, Inc. or will provide
 assistance to any competitor of Gaussian, Inc.  The licensee
 of this program is prohibited from giving any competitor of
 Gaussian, Inc. access to this program.  By using this program,
 the user acknowledges that Gaussian, Inc. is engaged in the
 business of creating and licensing software in the field of
 computational chemistry and represents and warrants to the
 licensee that it is not a competitor of Gaussian, Inc. and that
 it will not use this program in any manner prohibited above.
 ---------------------------------------------------------------
  

 Cite this work as:
 Gaussian 09, Revision D.01,
 M. J. Frisch, G. W. Trucks, H. B. Schlegel, G. E. Scuseria, 
 M. A. Robb, J. R. Cheeseman, G. Scalmani, V. Barone, B. Mennucci, 
 G. A. Petersson, H. Nakatsuji, M. Caricato, X. Li, H. P. Hratchian, 
 A. F. Izmaylov, J. Bloino, G. Zheng, J. L. Sonnenberg, M. Hada, 
 M. Ehara, K. Toyota, R. Fukuda, J. Hasegawa, M. Ishida, T. Nakajima, 
 Y. Honda, O. Kitao, H. Nakai, T. Vreven, J. A. Montgomery, Jr., 
 J. E. Peralta, F. Ogliaro, M. Bearpark, J. J. Heyd, E. Brothers, 
 K. N. Kudin, V. N. Staroverov, T. Keith, R. Kobayashi, J. Normand, 
 K. Raghavachari, A. Rendell, J. C. Burant, S. S. Iyengar, J. Tomasi, 
 M. Cossi, N. Rega, J. M. Millam, M. Klene, J. E. Knox, J. B. Cross, 
 V. Bakken, C. Adamo, J. Jaramillo, R. Gomperts, R. E. Stratmann, 
 O. Yazyev, A. J. Austin, R. Cammi, C. Pomelli, J. W. Ochterski, 
 R. L. Martin, K. Morokuma, V. G. Zakrzewski, G. A. Voth, 
 P. Salvador, J. J. Dannenberg, S. Dapprich, A. D. Daniels, 
 O. Farkas, J. B. Foresman, J. V. Ortiz, J. Cioslowski, 
 and D. J. Fox, Gaussian, Inc., Wallingford CT, 2013.
 
 ******************************************
 Gaussian 09:  ES64L-G09RevD.01 24-Apr-2013
                 8-Mar-2018 
 ******************************************
 %NProcShared=4
 Will use up to    4 processors via shared memory.
 %LindaWorkers=compute-0-1
 %chk=Isomer_07.chk
 %NProc=4
 Will use up to    4 processors via shared memory.
 %mem=4GB
 SetLPE:  input flags=" -vv -opt "Tsnet.Node.lindarsharg: ssh" "
 SetLPE:    new flags=" -vv -opt "Tsnet.Node.lindarsharg: ssh"  -nodelist 'compute-0-1.local'"
 Will use up to    1 processors via Linda.
 ----------------------------------------------------------------------
 #p PBE1PBE/Def2TZVP scf=(maxcycle=768) opt=(cartesian,maxcycle=512) fr
 eq
 ----------------------------------------------------------------------
 1/6=512,10=7,14=-1,18=10,26=3,38=1/1,3;
 2/12=2,17=6,18=5,29=2,40=1/2;
 3/5=44,7=101,11=2,16=1,25=1,30=1,71=1,74=-13/1,2,3;
 4//1;
 5/5=2,7=768,38=5/2;
 6/7=2,8=2,9=2,10=2,28=1/1;
 7/7=1,29=1/1,2,3,16;
 1/6=512,10=7,14=-1,18=10,26=3/3(2);
 2/29=1/2;
 99/12=1/99;
 2/29=1/2;
 3/5=44,7=101,11=2,16=1,25=1,30=1,71=1,74=-13/1,2,3;
 4/5=5,16=3,69=1/1;
 5/5=2,7=768,38=5/2;
 7/7=1/1,2,3,16;
 1/6=512,14=-1,18=10,26=3/3(-5);
 2/29=1/2;
 6/7=2,8=2,9=2,10=2,19=2,28=1/1;
 99/9=1,12=1/99;
 Leave Link    1 at Thu Mar  8 05:07:43 2018, MaxMem=   536870912 cpu:         0.2
 (Enter /share/apps//mg09/l101.exe)
 ---------------------
 01Final_coords.xyz_07
 ---------------------
 Symbolic Z-matrix:
 Charge =  0 Multiplicity = 1
 83                    2.50701   0.00121  -1.17294 
 32                    0.26878   1.66536  -1.77301 
 83                   -1.25069   2.08886   0.68572 
 32                    0.26925  -1.66332  -1.77411 
 83                   -2.0766    0.0004   -1.36985 
 83                   -1.25067  -2.08932   0.68396 
 50                    1.689    -1.61594   1.28485 
 32                   -0.4439   -0.00134   2.57072 
 50                    1.68853   1.61357   1.28739 
 
 NAtoms=      9 NQM=        9 NQMF=       0 NMMI=      0 NMMIF=      0
                NMic=       0 NMicF=      0.
                    Isotopes and Nuclear Properties:
 (Nuclear quadrupole moments (NQMom) in fm**2, nuclear magnetic moments (NMagM)
  in nuclear magnetons)

  Atom         1           2           3           4           5           6           7           8           9
 IAtWgt=         209          74         209          74         209         209         118          74         118
 AtmWgt= 208.9804000  73.9211788 208.9804000  73.9211788 208.9804000 208.9804000 117.9018000  73.9211788 117.9018000
 NucSpn=           9           0           9           0           9           9           0           0           0
 AtZEff=   0.0000000   0.0000000   0.0000000   0.0000000   0.0000000   0.0000000   0.0000000   0.0000000   0.0000000
 NQMom=  -51.6000000   0.0000000 -51.6000000   0.0000000 -51.6000000 -51.6000000   0.0000000   0.0000000   0.0000000
 NMagM=    4.1106000   0.0000000   4.1106000   0.0000000   4.1106000   4.1106000   0.0000000   0.0000000   0.0000000
 AtZNuc=  83.0000000  32.0000000  83.0000000  32.0000000  83.0000000  83.0000000  50.0000000  32.0000000  50.0000000
 Leave Link  101 at Thu Mar  8 05:07:43 2018, MaxMem=   536870912 cpu:         0.2
 (Enter /share/apps//mg09/l103.exe)

 GradGradGradGradGradGradGradGradGradGradGradGradGradGradGradGradGradGrad
 Berny optimization.
 Initialization pass.
 No Z-matrix variables, so optimization will use Cartesian coordinates.
 Trust Radius=3.00D-01 FncErr=1.00D-07 GrdErr=1.00D-06
 Number of steps in this run=    100 maximum allowed number of steps=    100.
 GradGradGradGradGradGradGradGradGradGradGradGradGradGradGradGradGradGrad

 Leave Link  103 at Thu Mar  8 05:07:43 2018, MaxMem=   536870912 cpu:         0.1
 (Enter /share/apps//mg09/l202.exe)
 ---------------------------------------------------------------------------------------------------
                            Z-MATRIX (ANGSTROMS AND DEGREES)
   CD    Cent   Atom    N1       Length/X        N2       Alpha/Y        N3        Beta/Z          J
 ---------------------------------------------------------------------------------------------------
      1      1  Bi       0   2.507010          0.001211         -1.172935
      2      2  Ge       0   0.268783          1.665355         -1.773013
      3      3  Bi       0  -1.250689          2.088861          0.685719
      4      4  Ge       0   0.269247         -1.663322         -1.774105
      5      5  Bi       0  -2.076605          0.000404         -1.369846
      6      6  Bi       0  -1.250666         -2.089320          0.683963
      7      7  Sn       0   1.689003         -1.615937          1.284851
      8      8  Ge       0  -0.443899         -0.001339          2.570720
      9      9  Sn       0   1.688530          1.613574          1.287388
 ---------------------------------------------------------------------------------------------------
                         Z-Matrix orientation:                         
 ---------------------------------------------------------------------
 Center     Atomic      Atomic             Coordinates (Angstroms)
 Number     Number       Type             X           Y           Z
 ---------------------------------------------------------------------
      1         83           0        2.507010    0.001211   -1.172935
      2         32           0        0.268783    1.665355   -1.773013
      3         83           0       -1.250689    2.088861    0.685719
      4         32           0        0.269247   -1.663322   -1.774105
      5         83           0       -2.076605    0.000404   -1.369846
      6         83           0       -1.250666   -2.089320    0.683963
      7         50           0        1.689003   -1.615937    1.284851
      8         32           0       -0.443899   -0.001339    2.570720
      9         50           0        1.688530    1.613574    1.287388
 ---------------------------------------------------------------------
                    Distance matrix (angstroms):
                    1          2          3          4          5
     1  Bi   0.000000
     2  Ge   2.852916   0.000000
     3  Bi   4.683287   2.921218   0.000000
     4  Ge   2.853009   3.328677   4.737068   0.000000
     5  Bi   4.587843   2.904385   3.044526   2.904209   0.000000
     6  Bi   4.683857   4.737409   4.178181   2.921251   3.044216
     7  Sn   3.053689   4.704725   4.767208   3.372709   4.882600
     8  Ge   4.766846   4.706782   2.927981   4.706195   4.265418
     9  Sn   3.053328   3.374080   3.037583   4.703738   4.882566
                    6          7          8          9
     6  Bi   0.000000
     7  Sn   3.037567   0.000000
     8  Ge   2.927523   2.968107   0.000000
     9  Sn   4.765965   3.229512   2.966840   0.000000
 Stoichiometry    Bi4Ge3Sn2
 Framework group  C1[X(Bi4Ge3Sn2)]
 Deg. of freedom    21
 Full point group                 C1      NOp   1
 Largest Abelian subgroup         C1      NOp   1
 Largest concise Abelian subgroup C1      NOp   1
                         Standard orientation:                         
 ---------------------------------------------------------------------
 Center     Atomic      Atomic             Coordinates (Angstroms)
 Number     Number       Type             X           Y           Z
 ---------------------------------------------------------------------
      1         83           0       -2.507010   -0.001210   -1.172935
      2         32           0       -0.268784   -1.665355   -1.773013
      3         83           0        1.250688   -2.088861    0.685719
      4         32           0       -0.269246    1.663322   -1.774105
      5         83           0        2.076605   -0.000405   -1.369846
      6         83           0        1.250667    2.089320    0.683963
      7         50           0       -1.689002    1.615938    1.284851
      8         32           0        0.443899    0.001339    2.570720
      9         50           0       -1.688531   -1.613573    1.287388
 ---------------------------------------------------------------------
 Rotational constants (GHZ):      0.0997338      0.0873645      0.0787882
 Leave Link  202 at Thu Mar  8 05:07:43 2018, MaxMem=   536870912 cpu:         0.2
 (Enter /share/apps//mg09/l301.exe)
 Standard basis: def2TZVP (5D, 7F)
 Ernie: Thresh=  0.10000D-02 Tol=  0.10000D-05 Strict=F.
 There are   519 symmetry adapted cartesian basis functions of A   symmetry.
 There are   444 symmetry adapted basis functions of A   symmetry.
   444 basis functions,   963 primitive gaussians,   519 cartesian basis functions
   116 alpha electrons      116 beta electrons
       nuclear repulsion energy      3519.2654807745 Hartrees.
 IExCor= 1009 DFT=T Ex+Corr=PBE1PBE ExCW=0 ScaHFX=  0.250000
 ScaDFX=  0.750000  0.750000  1.000000  1.000000 ScalE2=  1.000000  1.000000
 IRadAn=      0 IRanWt=     -1 IRanGd=            0 ICorTp=0 IEmpDi=  4
 NAtoms=    9 NActive=    9 NUniq=    9 SFac= 1.00D+00 NAtFMM=   60 NAOKFM=F Big=F
 Integral buffers will be    131072 words long.
 Raffenetti 2 integral format.
 Two-electron integral symmetry is turned on.
 Leave Link  301 at Thu Mar  8 05:07:43 2018, MaxMem=   536870912 cpu:         0.2
 (Enter /share/apps//mg09/l302.exe)
 NPDir=0 NMtPBC=     1 NCelOv=     1 NCel=       1 NClECP=     1 NCelD=      1
         NCelK=      1 NCelE2=     1 NClLst=     1 CellRange=     0.0.
 One-electron integrals computed using PRISM.
   1 Symmetry operations used in ECPInt.
 ECPInt:  NShTT=   10440 NPrTT=   41973 LenC2=    9663 LenP2D=   27462.
 LDataN:  DoStor=T MaxTD1= 8 Len=  415
 NBasis=   444 RedAO= T EigKep=  1.52D-03  NBF=   444
 NBsUse=   444 1.00D-06 EigRej= -1.00D+00 NBFU=   444
 Precomputing XC quadrature grid using
 IXCGrd= 4 IRadAn=           0 IRanWt=          -1 IRanGd=           0 AccXCQ= 0.00D+00.
 Defaulting to unpruned grid for atomic number  83.
 Defaulting to unpruned grid for atomic number  50.
 Defaulting to unpruned grid for atomic number  83.
 Generated NRdTot=       0 NPtTot=           0 NUsed=           0 NTot=          32
 NSgBfM=   500   500   500   503   503 MxSgAt=     9 MxSgA2=     9.
 Leave Link  302 at Thu Mar  8 05:07:53 2018, MaxMem=   536870912 cpu:        34.5
 (Enter /share/apps//mg09/l303.exe)
 DipDrv:  MaxL=1.
 Leave Link  303 at Thu Mar  8 05:07:53 2018, MaxMem=   536870912 cpu:         0.3
 (Enter /share/apps//mg09/l401.exe)
 ExpMin= 4.62D-02 ExpMax= 4.66D+05 ExpMxC= 4.50D+03 IAcc=2 IRadAn=         4 AccDes= 0.00D+00
 Harris functional with IExCor= 1009 and IRadAn=       4 diagonalized for initial guess.
 HarFok:  IExCor= 1009 AccDes= 0.00D+00 IRadAn=         4 IDoV= 1 UseB2=F ITyADJ=14
 ICtDFT=  3500011 ScaDFX=  1.000000  1.000000  1.000000  1.000000
 Defaulting to unpruned grid for atomic number  83.
 Defaulting to unpruned grid for atomic number  83.
 Defaulting to unpruned grid for atomic number  83.
 Defaulting to unpruned grid for atomic number  83.
 FoFCou: FMM=F IPFlag=           0 FMFlag=      100000 FMFlg1=           0
         NFxFlg=           0 DoJE=T BraDBF=F KetDBF=T FulRan=T
         wScrn=  0.000000 ICntrl=     500 IOpCl=  0 I1Cent=   200000004 NGrid=           0
         NMat0=    1 NMatS0=      1 NMatT0=    0 NMatD0=    1 NMtDS0=    0 NMtDT0=    0
 Petite list used in FoFCou.
 Harris En= -7518.59727793338    
 JPrj=0 DoOrth=F DoCkMO=F.
 Leave Link  401 at Thu Mar  8 05:07:56 2018, MaxMem=   536870912 cpu:        12.8
 (Enter /share/apps//mg09/l502.exe)
 Closed shell SCF:
 Using DIIS extrapolation, IDIIS=  1040.
 Integral symmetry usage will be decided dynamically.
 IVT=     1410107 IEndB=     1410107 NGot=   536870912 MDV=   536322046
 LenX=   536322046 LenY=   536052166
 Requested convergence on RMS density matrix=1.00D-08 within 768 cycles.
 Requested convergence on MAX density matrix=1.00D-06.
 Requested convergence on             energy=1.00D-06.
 No special actions if energy rises.
 Fock matrices will be formed incrementally for  20 cycles.

 Cycle   1  Pass 1  IDiag  1:
 FoFJK:  IHMeth= 1 ICntrl=       0 DoSepK=F KAlg= 0 I1Cent=   0 FoldK=F
 IRaf= 880000000 NMat=   1 IRICut=       1 DoRegI=T DoRafI=F ISym2E= 0.
 FoFCou: FMM=F IPFlag=           0 FMFlag=      100000 FMFlg1=           0
         NFxFlg=           0 DoJE=F BraDBF=F KetDBF=F FulRan=T
         wScrn=  0.000000 ICntrl=       0 IOpCl=  0 I1Cent=           0 NGrid=           0
         NMat0=    1 NMatS0=      1 NMatT0=    0 NMatD0=    1 NMtDS0=    0 NMtDT0=    0
 Symmetry not used in FoFCou.
 Defaulting to unpruned grid for atomic number  83.
 Defaulting to unpruned grid for atomic number  83.
 Defaulting to unpruned grid for atomic number  83.
 Defaulting to unpruned grid for atomic number  83.
 E= -7517.28629387459    
 DIIS: error= 3.50D-02 at cycle   1 NSaved=   1.
 NSaved= 1 IEnMin= 1 EnMin= -7517.28629387459     IErMin= 1 ErrMin= 3.50D-02
 ErrMax= 3.50D-02  0.00D+00 EMaxC= 1.00D-01 BMatC= 1.44D+00 BMatP= 1.44D+00
 IDIUse=3 WtCom= 6.50D-01 WtEn= 3.50D-01
 Coeff-Com:  0.100D+01
 Coeff-En:   0.100D+01
 Coeff:      0.100D+01
 Gap=     0.116 Goal=   None    Shift=    0.000
 GapD=    0.116 DampG=1.000 DampE=0.500 DampFc=0.5000 IDamp=-1.
 Damping current iteration by 5.00D-01
 RMSDP=4.53D-03 MaxDP=1.91D-01              OVMax= 3.45D-01

 Cycle   2  Pass 1  IDiag  1:
 RMSU=  2.26D-03    CP:  1.00D+00
 E= -7517.40797857032     Delta-E=       -0.121684695730 Rises=F Damp=T
 DIIS: error= 1.03D-02 at cycle   2 NSaved=   2.
 NSaved= 2 IEnMin= 2 EnMin= -7517.40797857032     IErMin= 2 ErrMin= 1.03D-02
 ErrMax= 1.03D-02  0.00D+00 EMaxC= 1.00D-01 BMatC= 1.58D-01 BMatP= 1.44D+00
 IDIUse=3 WtCom= 8.97D-01 WtEn= 1.03D-01
 Coeff-Com:  0.513D-01 0.949D+00
 Coeff-En:   0.376D+00 0.624D+00
 Coeff:      0.849D-01 0.915D+00
 Gap=     0.194 Goal=   None    Shift=    0.000
 RMSDP=2.35D-03 MaxDP=1.52D-01 DE=-1.22D-01 OVMax= 3.68D-01

 Cycle   3  Pass 1  IDiag  1:
 RMSU=  1.98D-03    CP:  1.01D+00  4.41D-01
 E= -7517.24752547778     Delta-E=        0.160453092542 Rises=F Damp=F
 DIIS: error= 2.58D-02 at cycle   3 NSaved=   3.
 NSaved= 3 IEnMin= 2 EnMin= -7517.40797857032     IErMin= 2 ErrMin= 1.03D-02
 ErrMax= 2.58D-02  0.00D+00 EMaxC= 1.00D-01 BMatC= 4.77D-01 BMatP= 1.58D-01
 IDIUse=2 WtCom= 0.00D+00 WtEn= 1.00D+00
 Coeff-En:   0.000D+00 0.597D+00 0.403D+00
 Coeff:      0.000D+00 0.597D+00 0.403D+00
 Gap=     0.179 Goal=   None    Shift=    0.000
 RMSDP=2.70D-03 MaxDP=1.34D-01 DE= 1.60D-01 OVMax= 3.24D-01

 Cycle   4  Pass 1  IDiag  1:
 RMSU=  9.20D-04    CP:  1.00D+00  1.02D+00 -9.68D-02
 E= -7517.58342985294     Delta-E=       -0.335904375157 Rises=F Damp=F
 DIIS: error= 1.36D-02 at cycle   4 NSaved=   4.
 NSaved= 4 IEnMin= 4 EnMin= -7517.58342985294     IErMin= 2 ErrMin= 1.03D-02
 ErrMax= 1.36D-02  0.00D+00 EMaxC= 1.00D-01 BMatC= 1.69D-01 BMatP= 1.58D-01
 IDIUse=3 WtCom= 8.64D-01 WtEn= 1.36D-01
 Coeff-Com: -0.190D-01 0.301D+00 0.335D+00 0.383D+00
 Coeff-En:   0.000D+00 0.000D+00 0.350D+00 0.650D+00
 Coeff:     -0.164D-01 0.260D+00 0.337D+00 0.419D+00
 Gap=     0.130 Goal=   None    Shift=    0.000
 RMSDP=1.41D-03 MaxDP=6.46D-02 DE=-3.36D-01 OVMax= 1.65D-01

 Cycle   5  Pass 1  IDiag  1:
 RMSU=  6.25D-04    CP:  1.00D+00  7.93D-01  3.73D-01  2.38D-01
 E= -7517.79027567927     Delta-E=       -0.206845826327 Rises=F Damp=F
 DIIS: error= 4.69D-03 at cycle   5 NSaved=   5.
 NSaved= 5 IEnMin= 5 EnMin= -7517.79027567927     IErMin= 5 ErrMin= 4.69D-03
 ErrMax= 4.69D-03  0.00D+00 EMaxC= 1.00D-01 BMatC= 2.49D-02 BMatP= 1.58D-01
 IDIUse=3 WtCom= 9.53D-01 WtEn= 4.69D-02
 Coeff-Com: -0.355D-02 0.501D-02 0.152D+00 0.333D+00 0.513D+00
 Coeff-En:   0.000D+00 0.000D+00 0.000D+00 0.141D+00 0.859D+00
 Coeff:     -0.338D-02 0.477D-02 0.145D+00 0.324D+00 0.529D+00
 Gap=     0.119 Goal=   None    Shift=    0.000
 RMSDP=4.30D-04 MaxDP=1.97D-02 DE=-2.07D-01 OVMax= 4.64D-02

 Cycle   6  Pass 1  IDiag  1:
 RMSU=  1.55D-04    CP:  1.00D+00  7.83D-01  2.77D-01  5.21D-01  6.21D-01
 E= -7517.81451199979     Delta-E=       -0.024236320527 Rises=F Damp=F
 DIIS: error= 1.19D-03 at cycle   6 NSaved=   6.
 NSaved= 6 IEnMin= 6 EnMin= -7517.81451199979     IErMin= 6 ErrMin= 1.19D-03
 ErrMax= 1.19D-03  0.00D+00 EMaxC= 1.00D-01 BMatC= 1.69D-03 BMatP= 2.49D-02
 IDIUse=3 WtCom= 9.88D-01 WtEn= 1.19D-02
 Coeff-Com:  0.203D-02-0.146D-01 0.850D-02 0.499D-01 0.245D+00 0.709D+00
 Coeff-En:   0.000D+00 0.000D+00 0.000D+00 0.000D+00 0.646D-01 0.935D+00
 Coeff:      0.201D-02-0.144D-01 0.840D-02 0.493D-01 0.243D+00 0.712D+00
 Gap=     0.119 Goal=   None    Shift=    0.000
 RMSDP=1.23D-04 MaxDP=5.38D-03 DE=-2.42D-02 OVMax= 1.45D-02

 Cycle   7  Pass 1  IDiag  1:
 RMSU=  8.56D-05    CP:  1.00D+00  7.94D-01  2.98D-01  4.87D-01  7.12D-01
                    CP:  7.69D-01
 E= -7517.81534018026     Delta-E=       -0.000828180469 Rises=F Damp=F
 DIIS: error= 6.49D-04 at cycle   7 NSaved=   7.
 NSaved= 7 IEnMin= 7 EnMin= -7517.81534018026     IErMin= 7 ErrMin= 6.49D-04
 ErrMax= 6.49D-04  0.00D+00 EMaxC= 1.00D-01 BMatC= 4.71D-04 BMatP= 1.69D-03
 IDIUse=3 WtCom= 9.94D-01 WtEn= 6.49D-03
 Coeff-Com:  0.168D-02-0.919D-02-0.888D-03 0.193D-01 0.147D+00 0.510D+00
 Coeff-Com:  0.333D+00
 Coeff-En:   0.000D+00 0.000D+00 0.000D+00 0.000D+00 0.000D+00 0.293D+00
 Coeff-En:   0.707D+00
 Coeff:      0.167D-02-0.913D-02-0.883D-03 0.192D-01 0.146D+00 0.508D+00
 Coeff:      0.335D+00
 Gap=     0.118 Goal=   None    Shift=    0.000
 RMSDP=8.08D-05 MaxDP=3.43D-03 DE=-8.28D-04 OVMax= 1.02D-02

 Cycle   8  Pass 1  IDiag  1:
 RMSU=  3.82D-05    CP:  1.00D+00  7.92D-01  3.00D-01  4.81D-01  7.20D-01
                    CP:  8.88D-01  2.04D-01
 E= -7517.81581807166     Delta-E=       -0.000477891397 Rises=F Damp=F
 DIIS: error= 2.94D-04 at cycle   8 NSaved=   8.
 NSaved= 8 IEnMin= 8 EnMin= -7517.81581807166     IErMin= 8 ErrMin= 2.94D-04
 ErrMax= 2.94D-04  0.00D+00 EMaxC= 1.00D-01 BMatC= 1.07D-04 BMatP= 4.71D-04
 IDIUse=3 WtCom= 9.97D-01 WtEn= 2.94D-03
 Coeff-Com:  0.779D-03-0.228D-02-0.377D-02-0.112D-02 0.367D-01 0.186D+00
 Coeff-Com:  0.305D+00 0.478D+00
 Coeff-En:   0.000D+00 0.000D+00 0.000D+00 0.000D+00 0.000D+00 0.000D+00
 Coeff-En:   0.265D+00 0.735D+00
 Coeff:      0.777D-03-0.227D-02-0.376D-02-0.112D-02 0.366D-01 0.186D+00
 Coeff:      0.305D+00 0.479D+00
 Gap=     0.118 Goal=   None    Shift=    0.000
 RMSDP=2.76D-05 MaxDP=1.22D-03 DE=-4.78D-04 OVMax= 3.38D-03

 Cycle   9  Pass 1  IDiag  1:
 RMSU=  1.06D-05    CP:  1.00D+00  7.90D-01  2.96D-01  4.83D-01  7.23D-01
                    CP:  8.75D-01  4.31D-01  6.28D-01
 E= -7517.81595764730     Delta-E=       -0.000139575637 Rises=F Damp=F
 DIIS: error= 3.79D-05 at cycle   9 NSaved=   9.
 NSaved= 9 IEnMin= 9 EnMin= -7517.81595764730     IErMin= 9 ErrMin= 3.79D-05
 ErrMax= 3.79D-05  0.00D+00 EMaxC= 1.00D-01 BMatC= 2.96D-06 BMatP= 1.07D-04
 IDIUse=1 WtCom= 1.00D+00 WtEn= 0.00D+00
 Coeff-Com:  0.430D-03-0.950D-03-0.208D-02-0.185D-02 0.107D-01 0.740D-01
 Coeff-Com:  0.153D+00 0.263D+00 0.504D+00
 Coeff:      0.430D-03-0.950D-03-0.208D-02-0.185D-02 0.107D-01 0.740D-01
 Coeff:      0.153D+00 0.263D+00 0.504D+00
 Gap=     0.118 Goal=   None    Shift=    0.000
 RMSDP=5.95D-06 MaxDP=3.76D-04 DE=-1.40D-04 OVMax= 6.87D-04

 Cycle  10  Pass 1  IDiag  1:
 RMSU=  4.00D-06    CP:  1.00D+00  7.90D-01  2.96D-01  4.83D-01  7.24D-01
                    CP:  8.78D-01  4.56D-01  6.71D-01  6.92D-01
 E= -7517.81596021146     Delta-E=       -0.000002564160 Rises=F Damp=F
 DIIS: error= 1.82D-05 at cycle  10 NSaved=  10.
 NSaved=10 IEnMin=10 EnMin= -7517.81596021146     IErMin=10 ErrMin= 1.82D-05
 ErrMax= 1.82D-05  0.00D+00 EMaxC= 1.00D-01 BMatC= 3.91D-07 BMatP= 2.96D-06
 IDIUse=1 WtCom= 1.00D+00 WtEn= 0.00D+00
 Coeff-Com:  0.142D-03-0.298D-03-0.388D-03-0.794D-03-0.106D-02 0.909D-02
 Coeff-Com:  0.318D-01 0.647D-01 0.275D+00 0.622D+00
 Coeff:      0.142D-03-0.298D-03-0.388D-03-0.794D-03-0.106D-02 0.909D-02
 Coeff:      0.318D-01 0.647D-01 0.275D+00 0.622D+00
 Gap=     0.118 Goal=   None    Shift=    0.000
 RMSDP=2.22D-06 MaxDP=1.08D-04 DE=-2.56D-06 OVMax= 3.44D-04

 Cycle  11  Pass 1  IDiag  1:
 RMSU=  1.29D-06    CP:  1.00D+00  7.90D-01  2.96D-01  4.83D-01  7.24D-01
                    CP:  8.83D-01  4.53D-01  6.85D-01  8.03D-01  7.96D-01
 E= -7517.81596062197     Delta-E=       -0.000000410517 Rises=F Damp=F
 DIIS: error= 7.50D-06 at cycle  11 NSaved=  11.
 NSaved=11 IEnMin=11 EnMin= -7517.81596062197     IErMin=11 ErrMin= 7.50D-06
 ErrMax= 7.50D-06  0.00D+00 EMaxC= 1.00D-01 BMatC= 5.14D-08 BMatP= 3.91D-07
 IDIUse=1 WtCom= 1.00D+00 WtEn= 0.00D+00
 Coeff-Com:  0.241D-04-0.598D-04 0.142D-03-0.228D-03-0.286D-02-0.755D-02
 Coeff-Com: -0.741D-02-0.946D-02 0.722D-01 0.323D+00 0.632D+00
 Coeff:      0.241D-04-0.598D-04 0.142D-03-0.228D-03-0.286D-02-0.755D-02
 Coeff:     -0.741D-02-0.946D-02 0.722D-01 0.323D+00 0.632D+00
 Gap=     0.118 Goal=   None    Shift=    0.000
 RMSDP=8.53D-07 MaxDP=5.63D-05 DE=-4.11D-07 OVMax= 1.32D-04

 Cycle  12  Pass 1  IDiag  1:
 RMSU=  4.76D-07    CP:  1.00D+00  7.90D-01  2.96D-01  4.83D-01  7.24D-01
                    CP:  8.84D-01  4.57D-01  6.92D-01  8.18D-01  8.93D-01
                    CP:  7.88D-01
 E= -7517.81596067581     Delta-E=       -0.000000053842 Rises=F Damp=F
 DIIS: error= 1.71D-06 at cycle  12 NSaved=  12.
 NSaved=12 IEnMin=12 EnMin= -7517.81596067581     IErMin=12 ErrMin= 1.71D-06
 ErrMax= 1.71D-06  0.00D+00 EMaxC= 1.00D-01 BMatC= 4.08D-09 BMatP= 5.14D-08
 IDIUse=1 WtCom= 1.00D+00 WtEn= 0.00D+00
 Coeff-Com:  0.811D-05-0.177D-04 0.998D-04-0.619D-04-0.126D-02-0.398D-02
 Coeff-Com: -0.596D-02-0.106D-01 0.148D-01 0.112D+00 0.329D+00 0.566D+00
 Coeff:      0.811D-05-0.177D-04 0.998D-04-0.619D-04-0.126D-02-0.398D-02
 Coeff:     -0.596D-02-0.106D-01 0.148D-01 0.112D+00 0.329D+00 0.566D+00
 Gap=     0.118 Goal=   None    Shift=    0.000
 RMSDP=3.15D-07 MaxDP=2.01D-05 DE=-5.38D-08 OVMax= 3.73D-05

 Cycle  13  Pass 1  IDiag  1:
 RMSU=  1.96D-07    CP:  1.00D+00  7.90D-01  2.96D-01  4.84D-01  7.24D-01
                    CP:  8.85D-01  4.58D-01  6.93D-01  8.25D-01  8.95D-01
                    CP:  8.71D-01  7.23D-01
 E= -7517.81596068076     Delta-E=       -0.000000004942 Rises=F Damp=F
 DIIS: error= 7.50D-07 at cycle  13 NSaved=  13.
 NSaved=13 IEnMin=13 EnMin= -7517.81596068076     IErMin=13 ErrMin= 7.50D-07
 ErrMax= 7.50D-07  0.00D+00 EMaxC= 1.00D-01 BMatC= 1.15D-09 BMatP= 4.08D-09
 IDIUse=1 WtCom= 1.00D+00 WtEn= 0.00D+00
 Coeff-Com:  0.186D-05-0.326D-05 0.445D-04-0.542D-05-0.418D-03-0.164D-02
 Coeff-Com: -0.302D-02-0.580D-02-0.122D-02 0.218D-01 0.111D+00 0.387D+00
 Coeff-Com:  0.492D+00
 Coeff:      0.186D-05-0.326D-05 0.445D-04-0.542D-05-0.418D-03-0.164D-02
 Coeff:     -0.302D-02-0.580D-02-0.122D-02 0.218D-01 0.111D+00 0.387D+00
 Coeff:      0.492D+00
 Gap=     0.118 Goal=   None    Shift=    0.000
 RMSDP=1.41D-07 MaxDP=5.08D-06 DE=-4.94D-09 OVMax= 1.84D-05

 Cycle  14  Pass 1  IDiag  1:
 RMSU=  1.01D-07    CP:  1.00D+00  7.90D-01  2.96D-01  4.84D-01  7.25D-01
                    CP:  8.85D-01  4.58D-01  6.94D-01  8.27D-01  9.01D-01
                    CP:  8.84D-01  8.31D-01  6.55D-01
 E= -7517.81596068134     Delta-E=       -0.000000000584 Rises=F Damp=F
 DIIS: error= 6.52D-07 at cycle  14 NSaved=  14.
 NSaved=14 IEnMin=14 EnMin= -7517.81596068134     IErMin=14 ErrMin= 6.52D-07
 ErrMax= 6.52D-07  0.00D+00 EMaxC= 1.00D-01 BMatC= 5.00D-10 BMatP= 1.15D-09
 IDIUse=1 WtCom= 1.00D+00 WtEn= 0.00D+00
 Coeff-Com:  0.156D-08 0.547D-06 0.174D-04 0.682D-05-0.114D-03-0.627D-03
 Coeff-Com: -0.140D-02-0.281D-02-0.330D-02-0.230D-02 0.294D-01 0.215D+00
 Coeff-Com:  0.401D+00 0.365D+00
 Coeff:      0.156D-08 0.547D-06 0.174D-04 0.682D-05-0.114D-03-0.627D-03
 Coeff:     -0.140D-02-0.281D-02-0.330D-02-0.230D-02 0.294D-01 0.215D+00
 Coeff:      0.401D+00 0.365D+00
 Gap=     0.118 Goal=   None    Shift=    0.000
 RMSDP=7.53D-08 MaxDP=3.07D-06 DE=-5.84D-10 OVMax= 9.27D-06

 Cycle  15  Pass 1  IDiag  1:
 RMSU=  3.77D-08    CP:  1.00D+00  7.90D-01  2.96D-01  4.84D-01  7.25D-01
                    CP:  8.85D-01  4.58D-01  6.94D-01  8.27D-01  9.04D-01
                    CP:  8.87D-01  8.56D-01  7.77D-01  4.42D-01
 E= -7517.81596068226     Delta-E=       -0.000000000922 Rises=F Damp=F
 DIIS: error= 1.53D-07 at cycle  15 NSaved=  15.
 NSaved=15 IEnMin=15 EnMin= -7517.81596068226     IErMin=15 ErrMin= 1.53D-07
 ErrMax= 1.53D-07  0.00D+00 EMaxC= 1.00D-01 BMatC= 4.44D-11 BMatP= 5.00D-10
 IDIUse=1 WtCom= 1.00D+00 WtEn= 0.00D+00
 Coeff-Com: -0.530D-06 0.150D-05-0.191D-05 0.737D-05 0.577D-04 0.109D-03
 Coeff-Com: -0.584D-04-0.250D-03-0.188D-02-0.826D-02-0.120D-01 0.430D-01
 Coeff-Com:  0.132D+00 0.250D+00 0.597D+00
 Coeff:     -0.530D-06 0.150D-05-0.191D-05 0.737D-05 0.577D-04 0.109D-03
 Coeff:     -0.584D-04-0.250D-03-0.188D-02-0.826D-02-0.120D-01 0.430D-01
 Coeff:      0.132D+00 0.250D+00 0.597D+00
 Gap=     0.118 Goal=   None    Shift=    0.000
 RMSDP=2.17D-08 MaxDP=9.90D-07 DE=-9.22D-10 OVMax= 3.13D-06

 Cycle  16  Pass 1  IDiag  1:
 RMSU=  9.98D-09    CP:  1.00D+00  7.90D-01  2.96D-01  4.84D-01  7.25D-01
                    CP:  8.85D-01  4.58D-01  6.94D-01  8.28D-01  9.05D-01
                    CP:  8.89D-01  8.66D-01  7.96D-01  5.75D-01  7.75D-01
 E= -7517.81596068204     Delta-E=        0.000000000224 Rises=F Damp=F
 DIIS: error= 2.51D-08 at cycle  16 NSaved=  16.
 NSaved=16 IEnMin=15 EnMin= -7517.81596068226     IErMin=16 ErrMin= 2.51D-08
 ErrMax= 2.51D-08  0.00D+00 EMaxC= 1.00D-01 BMatC= 1.13D-12 BMatP= 4.44D-11
 IDIUse=1 WtCom= 1.00D+00 WtEn= 0.00D+00
 Coeff-Com: -0.236D-06 0.508D-06-0.135D-05 0.214D-05 0.243D-04 0.689D-04
 Coeff-Com:  0.840D-04 0.110D-03-0.328D-03-0.242D-02-0.610D-02-0.319D-02
 Coeff-Com:  0.116D-01 0.531D-01 0.193D+00 0.754D+00
 Coeff:     -0.236D-06 0.508D-06-0.135D-05 0.214D-05 0.243D-04 0.689D-04
 Coeff:      0.840D-04 0.110D-03-0.328D-03-0.242D-02-0.610D-02-0.319D-02
 Coeff:      0.116D-01 0.531D-01 0.193D+00 0.754D+00
 Gap=     0.118 Goal=   None    Shift=    0.000
 RMSDP=4.99D-09 MaxDP=3.62D-07 DE= 2.24D-10 OVMax= 7.09D-07

 SCF Done:  E(RPBE1PBE) =  -7517.81596068     A.U. after   16 cycles
            NFock= 16  Conv=0.50D-08     -V/T= 2.1285
 KE= 6.661928376720D+03 PE=-2.462963284828D+04 EE= 6.930623030106D+03
 Leave Link  502 at Thu Mar  8 05:23:15 2018, MaxMem=   536870912 cpu:      3353.0
 (Enter /share/apps//mg09/l601.exe)
 Copying SCF densities to generalized density rwf, IOpCl= 0 IROHF=0.

 **********************************************************************

            Population analysis using the SCF density.

 **********************************************************************

 Orbital symmetries:
       Occupied  (A) (A) (A) (A) (A) (A) (A) (A) (A) (A) (A) (A)
                 (A) (A) (A) (A) (A) (A) (A) (A) (A) (A) (A) (A)
                 (A) (A) (A) (A) (A) (A) (A) (A) (A) (A) (A) (A)
                 (A) (A) (A) (A) (A) (A) (A) (A) (A) (A) (A) (A)
                 (A) (A) (A) (A) (A) (A) (A) (A) (A) (A) (A) (A)
                 (A) (A) (A) (A) (A) (A) (A) (A) (A) (A) (A) (A)
                 (A) (A) (A) (A) (A) (A) (A) (A) (A) (A) (A) (A)
                 (A) (A) (A) (A) (A) (A) (A) (A) (A) (A) (A) (A)
                 (A) (A) (A) (A) (A) (A) (A) (A) (A) (A) (A) (A)
                 (A) (A) (A) (A) (A) (A) (A) (A)
       Virtual   (A) (A) (A) (A) (A) (A) (A) (A) (A) (A) (A) (A)
                 (A) (A) (A) (A) (A) (A) (A) (A) (A) (A) (A) (A)
                 (A) (A) (A) (A) (A) (A) (A) (A) (A) (A) (A) (A)
                 (A) (A) (A) (A) (A) (A) (A) (A) (A) (A) (A) (A)
                 (A) (A) (A) (A) (A) (A) (A) (A) (A) (A) (A) (A)
                 (A) (A) (A) (A) (A) (A) (A) (A) (A) (A) (A) (A)
                 (A) (A) (A) (A) (A) (A) (A) (A) (A) (A) (A) (A)
                 (A) (A) (A) (A) (A) (A) (A) (A) (A) (A) (A) (A)
                 (A) (A) (A) (A) (A) (A) (A) (A) (A) (A) (A) (A)
                 (A) (A) (A) (A) (A) (A) (A) (A) (A) (A) (A) (A)
                 (A) (A) (A) (A) (A) (A) (A) (A) (A) (A) (A) (A)
                 (A) (A) (A) (A) (A) (A) (A) (A) (A) (A) (A) (A)
                 (A) (A) (A) (A) (A) (A) (A) (A) (A) (A) (A) (A)
                 (A) (A) (A) (A) (A) (A) (A) (A) (A) (A) (A) (A)
                 (A) (A) (A) (A) (A) (A) (A) (A) (A) (A) (A) (A)
                 (A) (A) (A) (A) (A) (A) (A) (A) (A) (A) (A) (A)
                 (A) (A) (A) (A) (A) (A) (A) (A) (A) (A) (A) (A)
                 (A) (A) (A) (A) (A) (A) (A) (A) (A) (A) (A) (A)
                 (A) (A) (A) (A) (A) (A) (A) (A) (A) (A) (A) (A)
                 (A) (A) (A) (A) (A) (A) (A) (A) (A) (A) (A) (A)
                 (A) (A) (A) (A) (A) (A) (A) (A) (A) (A) (A) (A)
                 (A) (A) (A) (A) (A) (A) (A) (A) (A) (A) (A) (A)
                 (A) (A) (A) (A) (A) (A) (A) (A) (A) (A) (A) (A)
                 (A) (A) (A) (A) (A) (A) (A) (A) (A) (A) (A) (A)
                 (A) (A) (A) (A) (A) (A) (A) (A) (A) (A) (A) (A)
                 (A) (A) (A) (A) (A) (A) (A) (A) (A) (A) (A) (A)
                 (A) (A) (A) (A) (A) (A) (A) (A) (A) (A) (A) (A)
                 (A) (A) (A) (A)
 The electronic state is 1-A.
 Alpha  occ. eigenvalues -- -399.10726-399.10725-399.08787 -49.92272 -49.92269
 Alpha  occ. eigenvalues --  -49.90375 -44.40356 -44.40354 -44.40320 -44.40318
 Alpha  occ. eigenvalues --  -44.40310 -44.40308 -44.38450 -44.38429 -44.38407
 Alpha  occ. eigenvalues --   -6.28767  -6.28765  -6.26873  -6.02086  -6.01258
 Alpha  occ. eigenvalues --   -6.01250  -6.01248  -5.13601  -5.13597  -4.44200
 Alpha  occ. eigenvalues --   -4.44198  -4.44098  -4.44097  -4.44052  -4.44051
 Alpha  occ. eigenvalues --   -4.42305  -4.42222  -4.42150  -3.74353  -3.74217
 Alpha  occ. eigenvalues --   -3.74103  -3.73575  -3.73573  -3.73466  -3.73455
 Alpha  occ. eigenvalues --   -3.73346  -3.73344  -3.73257  -3.73234  -3.73233
 Alpha  occ. eigenvalues --   -3.46828  -3.46824  -3.46758  -3.46754  -3.46567
 Alpha  occ. eigenvalues --   -3.46561  -1.23653  -1.23626  -1.23622  -1.23600
 Alpha  occ. eigenvalues --   -1.23574  -1.23534  -1.23516  -1.23508  -1.23478
 Alpha  occ. eigenvalues --   -1.23470  -1.21742  -1.21734  -1.21692  -1.21605
 Alpha  occ. eigenvalues --   -1.21573  -1.08395  -1.08033  -1.07958  -1.07930
 Alpha  occ. eigenvalues --   -1.07744  -1.07215  -1.07159  -1.07156  -1.07117
 Alpha  occ. eigenvalues --   -1.07081  -1.07061  -1.07050  -1.07048  -1.06978
 Alpha  occ. eigenvalues --   -1.06882  -1.06868  -1.06855  -1.06808  -1.06786
 Alpha  occ. eigenvalues --   -1.06776  -1.03081  -1.03056  -1.02995  -1.02991
 Alpha  occ. eigenvalues --   -1.02989  -1.02876  -1.02819  -1.02744  -1.02731
 Alpha  occ. eigenvalues --   -1.02592  -0.66416  -0.61376  -0.60383  -0.57571
 Alpha  occ. eigenvalues --   -0.48484  -0.46121  -0.45775  -0.41915  -0.41715
 Alpha  occ. eigenvalues --   -0.28776  -0.27756  -0.25890  -0.25363  -0.25025
 Alpha  occ. eigenvalues --   -0.24711  -0.23042  -0.22954  -0.21950  -0.21315
 Alpha  occ. eigenvalues --   -0.20340
 Alpha virt. eigenvalues --   -0.08505  -0.07763  -0.06347  -0.05997  -0.05987
 Alpha virt. eigenvalues --   -0.05154  -0.04607  -0.04525  -0.04265  -0.03458
 Alpha virt. eigenvalues --   -0.03392  -0.03035  -0.01985   0.03529   0.04601
 Alpha virt. eigenvalues --    0.04645   0.06509   0.08114   0.08550   0.08738
 Alpha virt. eigenvalues --    0.09085   0.09676   0.09980   0.10549   0.11274
 Alpha virt. eigenvalues --    0.11460   0.11671   0.11723   0.12261   0.13026
 Alpha virt. eigenvalues --    0.13346   0.15476   0.15508   0.16686   0.16927
 Alpha virt. eigenvalues --    0.17727   0.18423   0.19887   0.20105   0.20603
 Alpha virt. eigenvalues --    0.20725   0.21944   0.22513   0.23924   0.24225
 Alpha virt. eigenvalues --    0.24244   0.26308   0.26861   0.27144   0.28457
 Alpha virt. eigenvalues --    0.29726   0.30099   0.30841   0.30894   0.30960
 Alpha virt. eigenvalues --    0.31821   0.31936   0.32425   0.33194   0.33874
 Alpha virt. eigenvalues --    0.34548   0.34900   0.34981   0.36121   0.37236
 Alpha virt. eigenvalues --    0.38799   0.39350   0.39739   0.41095   0.41834
 Alpha virt. eigenvalues --    0.42832   0.43420   0.43754   0.43972   0.45568
 Alpha virt. eigenvalues --    0.45685   0.46553   0.47247   0.47380   0.47511
 Alpha virt. eigenvalues --    0.48735   0.50008   0.50346   0.50805   0.51162
 Alpha virt. eigenvalues --    0.51257   0.54400   0.55270   0.55638   0.56857
 Alpha virt. eigenvalues --    0.57259   0.57899   0.57922   0.58366   0.59019
 Alpha virt. eigenvalues --    0.60061   0.60715   0.60776   0.61641   0.62991
 Alpha virt. eigenvalues --    0.63078   0.63306   0.64791   0.65184   0.65523
 Alpha virt. eigenvalues --    0.65646   0.66909   0.67760   0.68391   0.69519
 Alpha virt. eigenvalues --    0.70288   0.70386   0.72782   0.73429   0.73870
 Alpha virt. eigenvalues --    0.75683   0.76231   0.76385   0.77795   0.78341
 Alpha virt. eigenvalues --    0.79367   0.79656   0.80439   0.82285   0.82881
 Alpha virt. eigenvalues --    0.83509   0.83964   0.84334   0.86217   0.87272
 Alpha virt. eigenvalues --    0.87508   0.88115   0.88996   0.90005   0.90631
 Alpha virt. eigenvalues --    0.91379   0.91958   0.92622   0.93120   0.93747
 Alpha virt. eigenvalues --    0.95320   0.95464   0.96060   0.96179   0.97529
 Alpha virt. eigenvalues --    0.97654   0.99127   0.99949   1.00180   1.00597
 Alpha virt. eigenvalues --    1.02835   1.04955   1.05025   1.06799   1.06942
 Alpha virt. eigenvalues --    1.07833   1.10201   1.10809   1.11667   1.12083
 Alpha virt. eigenvalues --    1.13999   1.14503   1.14809   1.15766   1.16130
 Alpha virt. eigenvalues --    1.16938   1.17331   1.19250   1.19456   1.19834
 Alpha virt. eigenvalues --    1.20002   1.20908   1.21001   1.21381   1.22069
 Alpha virt. eigenvalues --    1.22208   1.23194   1.23248   1.23582   1.23672
 Alpha virt. eigenvalues --    1.24009   1.24403   1.24991   1.25767   1.25783
 Alpha virt. eigenvalues --    1.26447   1.26551   1.28034   1.29152   1.29179
 Alpha virt. eigenvalues --    1.29839   1.31408   1.31421   1.32981   1.33388
 Alpha virt. eigenvalues --    1.34942   1.36003   1.36470   1.38010   1.38452
 Alpha virt. eigenvalues --    1.38936   1.40811   1.43142   1.43297   1.43612
 Alpha virt. eigenvalues --    1.44952   1.45750   1.46977   1.47563   1.49216
 Alpha virt. eigenvalues --    1.49291   1.49847   1.51525   1.51925   1.53065
 Alpha virt. eigenvalues --    1.53615   1.54237   1.56327   1.56738   1.60483
 Alpha virt. eigenvalues --    1.62531   1.68030   1.68804   2.07971   2.10507
 Alpha virt. eigenvalues --    2.12199   2.12833   2.14396   2.15910   2.16149
 Alpha virt. eigenvalues --    2.17224   2.18514   2.18572   2.19667   2.20838
 Alpha virt. eigenvalues --    2.22025   2.22708   2.24087   2.24729   2.26093
 Alpha virt. eigenvalues --    2.27042   2.27090   2.28147   2.29673   2.31906
 Alpha virt. eigenvalues --    2.32741   2.35378   2.35455   2.37561   2.40548
 Alpha virt. eigenvalues --    2.40636   2.41253   2.41799   2.42937   2.43716
 Alpha virt. eigenvalues --    2.47782   2.48917   2.51118   2.51658   2.55416
 Alpha virt. eigenvalues --    2.58921   2.61210   2.62846   2.64384   2.67116
 Alpha virt. eigenvalues --    2.69605   2.71599   2.73717   2.74340   2.75266
 Alpha virt. eigenvalues --    2.77938   2.78757   2.80353   2.80541   2.80794
 Alpha virt. eigenvalues --    2.81466   2.81803   2.81903   2.84247   2.87981
 Alpha virt. eigenvalues --    3.21215   3.26611   3.28354   3.36386   3.39066
 Alpha virt. eigenvalues --    3.39207   3.92865   3.93602   3.98974   3.99221
 Alpha virt. eigenvalues --    4.01408   4.03802   4.05275   4.07817   4.08502
 Alpha virt. eigenvalues --    5.17207   5.31833   5.42675  35.36684  35.40649
 Alpha virt. eigenvalues --   35.42545  35.44930  35.45811  35.46695  35.51225
 Alpha virt. eigenvalues --   35.51671  35.51921  35.52970  35.56701  35.64357
 Alpha virt. eigenvalues --   35.85364  36.00096  36.00289  36.03416  36.18826
 Alpha virt. eigenvalues --   36.22702  36.95531  36.98384  37.00296  37.02214
 Alpha virt. eigenvalues --   37.09279  37.18835 113.57026 113.59508 120.21464
 Alpha virt. eigenvalues --  120.24669 120.25079 120.25208
          Condensed to atoms (all electrons):
               1          2          3          4          5          6
     1  Bi  22.385530   0.194308  -0.021912   0.194202  -0.024448  -0.021908
     2  Ge   0.194308  31.508554   0.156383   0.041939   0.157546  -0.019382
     3  Bi  -0.021912   0.156383  22.365380  -0.019390   0.178693  -0.020069
     4  Ge   0.194202   0.041939  -0.019390  31.508713   0.157513   0.156267
     5  Bi  -0.024448   0.157546   0.178693   0.157513  22.344899   0.178795
     6  Bi  -0.021908  -0.019382  -0.020069   0.156267   0.178795  22.365345
     7  Sn   0.147579  -0.015063  -0.017787   0.058062  -0.016240   0.147726
     8  Ge  -0.013231  -0.014792   0.182433  -0.014802  -0.013835   0.182460
     9  Sn   0.147580   0.057896   0.147736  -0.015094  -0.016245  -0.017835
               7          8          9
     1  Bi   0.147579  -0.013231   0.147580
     2  Ge  -0.015063  -0.014792   0.057896
     3  Bi  -0.017787   0.182433   0.147736
     4  Ge   0.058062  -0.014802  -0.015094
     5  Bi  -0.016240  -0.013835  -0.016245
     6  Bi   0.147726   0.182460  -0.017835
     7  Sn  21.363799   0.141818   0.106250
     8  Ge   0.141818  31.603596   0.142015
     9  Sn   0.106250   0.142015  21.363852
 Mulliken charges:
               1
     1  Bi   0.012301
     2  Ge  -0.067389
     3  Bi   0.048533
     4  Ge  -0.067410
     5  Bi   0.053323
     6  Bi   0.048601
     7  Sn   0.083856
     8  Ge  -0.195662
     9  Sn   0.083846
 Sum of Mulliken charges =   0.00000
 Mulliken charges with hydrogens summed into heavy atoms:
               1
     1  Bi   0.012301
     2  Ge  -0.067389
     3  Bi   0.048533
     4  Ge  -0.067410
     5  Bi   0.053323
     6  Bi   0.048601
     7  Sn   0.083856
     8  Ge  -0.195662
     9  Sn   0.083846
 Electronic spatial extent (au):  <R**2>=           5938.3300
 Charge=              0.0000 electrons
 Dipole moment (field-independent basis, Debye):
    X=              0.2642    Y=              0.0010    Z=             -0.5784  Tot=              0.6358
 Quadrupole moment (field-independent basis, Debye-Ang):
   XX=           -212.5901   YY=           -218.5131   ZZ=           -222.4944
   XY=             -0.0042   XZ=             -1.5287   YZ=              0.0068
 Traceless Quadrupole moment (field-independent basis, Debye-Ang):
   XX=              5.2758   YY=             -0.6473   ZZ=             -4.6285
   XY=             -0.0042   XZ=             -1.5287   YZ=              0.0068
 Octapole moment (field-independent basis, Debye-Ang**2):
  XXX=             72.7286  YYY=             -0.0217  ZZZ=            -46.7759  XYY=             30.9843
  XXY=             -0.0056  XXZ=            -18.2989  XZZ=             23.3804  YZZ=             -0.0215
  YYZ=             -4.4695  XYZ=             -0.0149
 Hexadecapole moment (field-independent basis, Debye-Ang**3):
 XXXX=          -3563.5368 YYYY=          -3256.5649 ZZZZ=          -3003.5835 XXXY=              0.0789
 XXXZ=             38.3129 YYYX=              0.0515 YYYZ=              0.0069 ZZZX=             41.2137
 ZZZY=             -0.0712 XXYY=          -1136.9559 XXZZ=          -1074.9069 YYZZ=          -1022.9133
 XXYZ=              0.0223 YYXZ=             28.9678 ZZXY=              0.0128
 N-N= 3.519265480775D+03 E-N=-2.462963287353D+04  KE= 6.661928376720D+03
 No NMR shielding tensors so no spin-rotation constants.
 Leave Link  601 at Thu Mar  8 05:23:16 2018, MaxMem=   536870912 cpu:         1.8
 (Enter /share/apps//mg09/l701.exe)
 Compute integral first derivatives.
 ... and contract with generalized density number  0.
   1 Symmetry operations used in ECPInt.
 ECPInt:  NShTT=   10440 NPrTT=   41973 LenC2=    9663 LenP2D=   27462.
 LDataN:  DoStor=T MaxTD1= 9 Len=  602
 Leave Link  701 at Thu Mar  8 05:23:37 2018, MaxMem=   536870912 cpu:        81.3
 (Enter /share/apps//mg09/l702.exe)
 L702 exits ... SP integral derivatives will be done elsewhere.
 Leave Link  702 at Thu Mar  8 05:23:37 2018, MaxMem=   536870912 cpu:         0.1
 (Enter /share/apps//mg09/l703.exe)
 Compute integral first derivatives, UseDBF=F ICtDFT=           0.
 Integral derivatives from FoFJK, PRISM(SPDF).
 Calling FoFJK, ICntrl=      2127 FMM=F ISym2X=0 I1Cent= 0 IOpClX= 0 NMat=1 NMatS=1 NMatT=0.
 FoFJK:  IHMeth= 1 ICntrl=    2127 DoSepK=F KAlg= 0 I1Cent=   0 FoldK=F
 IRaf=         0 NMat=   1 IRICut=       1 DoRegI=T DoRafI=F ISym2E= 0.
 FoFCou: FMM=F IPFlag=           0 FMFlag=      100000 FMFlg1=         800
         NFxFlg=           0 DoJE=F BraDBF=F KetDBF=F FulRan=T
         wScrn=  0.000000 ICntrl=    2127 IOpCl=  0 I1Cent=           0 NGrid=           0
         NMat0=    1 NMatS0=      1 NMatT0=    0 NMatD0=    1 NMtDS0=    0 NMtDT0=    0
 Symmetry not used in FoFCou.
 Defaulting to unpruned grid for atomic number  83.
 Defaulting to unpruned grid for atomic number  83.
 Defaulting to unpruned grid for atomic number  83.
 Defaulting to unpruned grid for atomic number  83.
 Leave Link  703 at Thu Mar  8 05:27:16 2018, MaxMem=   536870912 cpu:       846.3
 (Enter /share/apps//mg09/l716.exe)
 Dipole        = 1.03939624D-01 3.83598551D-04-2.27547229D-01
 ***** Axes restored to original set *****
 -------------------------------------------------------------------
 Center     Atomic                   Forces (Hartrees/Bohr)
 Number     Number              X              Y              Z
 -------------------------------------------------------------------
      1       83          -0.009855429   -0.000022860    0.002917666
      2       32          -0.000651151   -0.008451466    0.009260573
      3       83           0.006342623   -0.006982286   -0.001821401
      4       32          -0.000632760    0.008416673    0.009231988
      5       83           0.009419318    0.000025839    0.002292575
      6       83           0.006337349    0.006950625   -0.001810918
      7       50          -0.008758532    0.010038359   -0.004089137
      8       32           0.006527428    0.000004182   -0.011892195
      9       50          -0.008728846   -0.009979067   -0.004089151
 -------------------------------------------------------------------
 Cartesian Forces:  Max     0.011892195 RMS     0.006854258
 Force constants in Cartesian coordinates: 
                1             2             3             4             5 
      1  0.190181D+00
      2  0.223879D-04  0.124840D+00
      3 -0.202293D-01 -0.255793D-04  0.138553D+00
      4 -0.598550D-01  0.328370D-01 -0.198404D-01  0.154820D+00
      5  0.156426D-01 -0.404134D-01  0.203352D-01 -0.607480D-02  0.123715D+00
      6  0.882034D-02  0.320764D-02 -0.307369D-01 -0.148784D-01 -0.298533D-01
      7 -0.203184D-02  0.208191D-03  0.505788D-02 -0.372532D-01  0.179507D-01
      8  0.637353D-02  0.159626D-02 -0.378407D-02  0.443609D-02 -0.187553D-01
      9  0.497907D-02 -0.688971D-03  0.651857D-02  0.308079D-01 -0.162426D-01
     10 -0.598229D-01 -0.328208D-01 -0.198611D-01  0.539063D-02  0.507329D-04
     11 -0.156678D-01 -0.404032D-01 -0.203458D-01 -0.451574D-04 -0.114828D-01
     12  0.880617D-02 -0.320243D-02 -0.307530D-01  0.371701D-03  0.191788D-02
     13 -0.629743D-02 -0.351263D-05  0.196106D-02 -0.581210D-01 -0.138315D-01
     14 -0.203471D-05  0.101211D-01  0.336486D-05 -0.275996D-01 -0.371071D-01
     15 -0.262601D-02  0.259041D-05  0.148514D-02  0.177279D-01  0.197115D-01
     16 -0.202936D-02 -0.209921D-03  0.505646D-02  0.376477D-02 -0.421122D-02
     17 -0.638340D-02  0.159125D-02  0.378125D-02  0.154669D-02 -0.170588D-02
     18  0.497027D-02  0.680852D-03  0.651995D-02  0.111472D-03  0.596874D-04
     19 -0.299392D-01 -0.126474D-01  0.235422D-01  0.390250D-02  0.583511D-02
     20  0.119728D-01 -0.326576D-01  0.136311D-01 -0.172806D-02 -0.122880D-02
     21 -0.678457D-02  0.266737D-01 -0.445957D-01  0.322556D-04  0.637865D-02
     22 -0.256075D-03  0.000000D+00  0.739114D-03  0.543669D-02 -0.212819D-02
     23 -0.392940D-05  0.793372D-02  0.879113D-05 -0.106995D-02  0.312518D-02
     24  0.885434D-02  0.989613D-05 -0.229905D-02  0.245422D-02  0.832701D-02
     25 -0.299489D-01  0.126134D-01  0.235742D-01 -0.180850D-01 -0.132334D-01
     26 -0.119542D-01 -0.326084D-01 -0.136043D-01 -0.230223D-02 -0.161470D-01
     27 -0.679029D-02 -0.266577D-01 -0.446918D-01 -0.167866D-01 -0.106341D-01
                6             7             8             9            10 
      6  0.148891D+00
      7  0.147952D-01  0.142234D+00
      8  0.969437D-02 -0.379634D-01  0.138311D+00
      9 -0.604310D-01 -0.682813D-02  0.117038D-01  0.144919D+00
     10  0.372333D-03  0.376318D-02 -0.154539D-02  0.109790D-03  0.154855D+00
     11 -0.192588D-02  0.420915D-02 -0.170392D-02 -0.618381D-04  0.608600D-02
     12  0.467837D-03  0.482724D-02 -0.244206D-02  0.458218D-03 -0.148759D-01
     13 -0.954611D-02 -0.255587D-01  0.120379D-01  0.911801D-03 -0.581516D-01
     14  0.240087D-02 -0.150078D-01 -0.383388D-01 -0.211951D-01  0.275854D-01
     15 -0.233496D-01 -0.228059D-01 -0.143455D-01 -0.340096D-01  0.177586D-01
     16  0.482388D-02  0.150952D-02  0.362663D-03  0.266447D-02 -0.372529D-01
     17  0.244152D-02 -0.365032D-03 -0.816527D-02 -0.198347D-03 -0.446855D-02
     18  0.460901D-03  0.266420D-02  0.185550D-03  0.668990D-02  0.308081D-01
     19 -0.558970D-02  0.104941D-02  0.773091D-02  0.714540D-03 -0.181185D-01
     20  0.317588D-02  0.342135D-02 -0.148802D-02 -0.301850D-02  0.231676D-02
     21  0.299390D-03 -0.421123D-02  0.397562D-02  0.503520D-02 -0.168010D-01
     22  0.104269D-02 -0.227079D-01  0.208702D-01 -0.164685D-01  0.543652D-02
     23 -0.128485D-02  0.576278D-02 -0.475988D-01  0.313744D-01  0.106582D-02
     24 -0.459043D-02  0.688163D-02  0.624896D-02 -0.466390D-01  0.245341D-02
     25  0.159733D-03 -0.610048D-01 -0.123026D-01 -0.168909D-01  0.390072D-02
     26  0.121437D-01  0.217840D-01 -0.238568D-01 -0.167288D-02  0.172999D-02
     27 -0.310107D-01 -0.380965D-03 -0.112367D-01 -0.225411D-01  0.358582D-04
               11            12            13            14            15 
     11  0.123677D+00
     12  0.298093D-01  0.148987D+00
     13  0.138448D-01 -0.953249D-02  0.177159D+00
     14 -0.370856D-01 -0.240981D-02 -0.140307D-04  0.126124D+00
     15 -0.197139D-01 -0.233733D-01  0.264996D-01 -0.117236D-04  0.114730D+00
     16 -0.179662D-01  0.147824D-01 -0.255724D-01  0.150313D-01 -0.227994D-01
     17 -0.187586D-01 -0.965051D-02 -0.120385D-01 -0.383793D-01  0.143511D-01
     18  0.162760D-01 -0.604174D-01  0.902295D-03  0.212050D-01 -0.340001D-01
     19  0.132381D-01  0.174570D-03 -0.131506D-02 -0.600813D-03 -0.538371D-02
     20 -0.161589D-01 -0.121323D-01  0.682026D-02  0.329598D-02  0.438349D-02
     21  0.106636D-01 -0.310545D-01 -0.418260D-02 -0.135629D-02  0.258780D-02
     22  0.212769D-02  0.104497D-02 -0.825738D-03  0.000000D+00 -0.299068D-02
     23  0.313268D-02  0.129359D-02  0.158468D-05  0.806913D-02  0.719306D-05
     24 -0.831972D-02 -0.460020D-02 -0.282712D-02  0.539058D-05 -0.664775D-02
     25 -0.582666D-02 -0.559866D-02 -0.131735D-02  0.606730D-03 -0.538033D-02
     26 -0.121668D-02 -0.318368D-02 -0.681695D-02  0.330046D-02 -0.438486D-02
     27 -0.638190D-02  0.285828D-03 -0.418639D-02  0.135830D-02  0.257758D-02
               16            17            18            19            20 
     16  0.142281D+00
     17  0.379659D-01  0.138363D+00
     18 -0.679033D-02 -0.117086D-01  0.144930D+00
     19 -0.610162D-01  0.123421D-01 -0.168678D-01  0.167376D+00
     20 -0.217714D-01 -0.238669D-01  0.168621D-02 -0.308508D-01  0.148979D+00
     21 -0.386990D-03  0.112313D-01 -0.225163D-01  0.150812D-01 -0.317232D-01
     22 -0.227314D-01 -0.208658D-01 -0.165001D-01 -0.387041D-01  0.138952D-01
     23 -0.578172D-02 -0.475898D-01 -0.313979D-01  0.208621D-01 -0.322643D-01
     24  0.686837D-02 -0.626763D-02 -0.467028D-01 -0.406099D-02  0.121886D-01
     25  0.104743D-02 -0.773340D-02  0.701942D-03 -0.232352D-01  0.159239D-01
     26 -0.341942D-02 -0.148831D-02  0.301317D-02 -0.159093D-01 -0.446101D-01
     27 -0.421886D-02 -0.398005D-02  0.503581D-02 -0.761031D-02  0.118087D-01
               21            22            23            24            25 
     21  0.140799D+00
     22  0.248356D-01  0.113128D+00
     23 -0.139931D-01  0.459239D-04  0.137507D+00
     24 -0.319823D-01 -0.165515D-01 -0.997480D-05  0.175482D+00
     25 -0.758270D-02 -0.387760D-01 -0.208826D-01 -0.407231D-02  0.167419D+00
     26 -0.118502D-01 -0.139466D-01 -0.323149D-01 -0.121825D-01  0.308346D-01
     27 -0.185728D-01  0.248485D-01  0.140018D-01 -0.320204D-01  0.150891D-01
               26            27 
     26  0.148942D+00
     27  0.317216D-01  0.140937D+00
 Leave Link  716 at Thu Mar  8 05:27:16 2018, MaxMem=   536870912 cpu:         0.1
 (Enter /share/apps//mg09/l103.exe)

 GradGradGradGradGradGradGradGradGradGradGradGradGradGradGradGradGradGrad
 Berny optimization.
 Search for a local minimum.
 Step number   1 out of a maximum of  100
 All quantities printed in internal units (Hartrees-Bohrs-Radians)
 Second derivative matrix not updated -- first step.
 ITU=  0
     Eigenvalues ---    0.07145   0.09304   0.10994   0.11960   0.12831
     Eigenvalues ---    0.12942   0.13466   0.14356   0.14902   0.15461
     Eigenvalues ---    0.16458   0.20583   0.22244   0.22595   0.23691
     Eigenvalues ---    0.23814   0.25477   0.26525   0.26635   0.29064
     Eigenvalues ---    0.30076
 RFO step:  Lambda=-7.84679357D-03 EMin= 7.14520112D-02
 Linear search not attempted -- first point.
 TrRot=  0.000902 -0.000004  0.000684 -0.003687  0.000100  0.003687
 Variable       Old X    -DE/DX   Delta X   Delta X   Delta X     New X
                                 (Linear)    (Quad)   (Total)
    X1        4.73756  -0.00986   0.00000  -0.05576  -0.05508   4.68248
    Y1        0.00229  -0.00002   0.00000  -0.00015  -0.00016   0.00213
    Z1       -2.21653   0.00292   0.00000   0.03083   0.03105  -2.18548
    X2        0.50793  -0.00065   0.00000  -0.00110  -0.00053   0.50740
    Y2        3.14706  -0.00845   0.00000  -0.06276  -0.06277   3.08430
    Z2       -3.35051   0.00926   0.00000   0.05033   0.05096  -3.29955
    X3       -2.36346   0.00634   0.00000   0.03203   0.03306  -2.33040
    Y3        3.94738  -0.00698   0.00000  -0.05733  -0.05734   3.89004
    Z3        1.29582  -0.00182   0.00000  -0.01400  -0.01308   1.28274
    X4        0.50880  -0.00063   0.00000  -0.00109  -0.00052   0.50829
    Y4       -3.14322   0.00842   0.00000   0.06257   0.06257  -3.08065
    Z4       -3.35257   0.00923   0.00000   0.05017   0.05080  -3.30177
    X5       -3.92421   0.00942   0.00000   0.04909   0.04974  -3.87448
    Y5        0.00076   0.00003   0.00000   0.00012   0.00012   0.00088
    Z5       -2.58863   0.00229   0.00000   0.02601   0.02708  -2.56155
    X6       -2.36342   0.00634   0.00000   0.03201   0.03304  -2.33037
    Y6       -3.94824   0.00695   0.00000   0.05719   0.05718  -3.89106
    Z6        1.29250  -0.00181   0.00000  -0.01406  -0.01314   1.27936
    X7        3.19175  -0.00876   0.00000  -0.04960  -0.04846   3.14330
    Y7       -3.05368   0.01004   0.00000   0.06038   0.06037  -2.99331
    Z7        2.42802  -0.00409   0.00000  -0.03000  -0.02963   2.39839
    X8       -0.83885   0.00653   0.00000   0.03572   0.03710  -0.80175
    Y8       -0.00253   0.00000   0.00000   0.00003   0.00003  -0.00250
    Z8        4.85796  -0.01189   0.00000  -0.07504  -0.07427   4.78368
    X9        3.19086  -0.00873   0.00000  -0.04951  -0.04836   3.14250
    Y9        3.04921  -0.00998   0.00000  -0.06000  -0.06000   2.98921
    Z9        2.43281  -0.00409   0.00000  -0.03014  -0.02976   2.40305
         Item               Value     Threshold  Converged?
 Maximum Force            0.011892     0.000450     NO 
 RMS     Force            0.006854     0.000300     NO 
 Maximum Displacement     0.074272     0.001800     NO 
 RMS     Displacement     0.042995     0.001200     NO 
 Predicted change in Energy=-4.119362D-03
 Lowest energy point so far.  Saving SCF results.
 GradGradGradGradGradGradGradGradGradGradGradGradGradGradGradGradGradGrad

 Leave Link  103 at Thu Mar  8 05:27:16 2018, MaxMem=   536870912 cpu:         0.2
 (Enter /share/apps//mg09/l202.exe)
                          Input orientation:                          
 ---------------------------------------------------------------------
 Center     Atomic      Atomic             Coordinates (Angstroms)
 Number     Number       Type             X           Y           Z
 ---------------------------------------------------------------------
      1         83           0        2.477864    0.001128   -1.156505
      2         32           0        0.268505    1.632140   -1.746046
      3         83           0       -1.233195    2.058519    0.678795
      4         32           0        0.268973   -1.630212   -1.747222
      5         83           0       -2.050284    0.000465   -1.355515
      6         83           0       -1.233181   -2.059061    0.677010
      7         50           0        1.663361   -1.583989    1.269171
      8         32           0       -0.424267   -0.001324    2.531417
      9         50           0        1.662937    1.581821    1.271637
 ---------------------------------------------------------------------
                    Distance matrix (angstroms):
                    1          2          3          4          5
     1  Bi   0.000000
     2  Ge   2.808742   0.000000
     3  Bi   4.623110   2.883879   0.000000
     4  Ge   2.808810   3.262353   4.663562   0.000000
     5  Bi   4.532520   2.862108   3.006932   2.862079   0.000000
     6  Bi   4.623636   4.663821   4.117581   2.883970   3.006737
     7  Sn   3.009969   4.623921   4.691103   3.323414   4.815666
     8  Ge   4.692881   4.630856   2.886091   4.630401   4.213333
     9  Sn   3.009746   3.324663   2.994376   4.623181   4.815665
                    6          7          8          9
     6  Bi   0.000000
     7  Sn   2.994379   0.000000
     8  Ge   2.885733   2.907969   0.000000
     9  Sn   4.690108   3.165811   2.906856   0.000000
 Stoichiometry    Bi4Ge3Sn2
 Framework group  C1[X(Bi4Ge3Sn2)]
 Deg. of freedom    21
 Full point group                 C1      NOp   1
 RotChk:  IX=0 Diff= 2.65D-03
 Largest Abelian subgroup         C1      NOp   1
 Largest concise Abelian subgroup C1      NOp   1
                         Standard orientation:                         
 ---------------------------------------------------------------------
 Center     Atomic      Atomic             Coordinates (Angstroms)
 Number     Number       Type             X           Y           Z
 ---------------------------------------------------------------------
      1         83           0       -2.474338   -0.001018   -1.161692
      2         32           0       -0.263893   -1.632001   -1.747233
      3         83           0        1.233268   -2.058587    0.680377
      4         32           0       -0.264333    1.630351   -1.748148
      5         83           0        2.054175   -0.000376   -1.352237
      6         83           0        1.233290    2.058994    0.678923
      7         50           0       -1.664359    1.583897    1.265630
      8         32           0        0.420894    0.001113    2.531649
      9         50           0       -1.663964   -1.581913    1.267842
 ---------------------------------------------------------------------
 Rotational constants (GHZ):      0.1027978      0.0897071      0.0811338
 Leave Link  202 at Thu Mar  8 05:27:17 2018, MaxMem=   536870912 cpu:         0.0
 (Enter /share/apps//mg09/l301.exe)
 Standard basis: def2TZVP (5D, 7F)
 Ernie: Thresh=  0.10000D-02 Tol=  0.10000D-05 Strict=F.
 There are   519 symmetry adapted cartesian basis functions of A   symmetry.
 There are   444 symmetry adapted basis functions of A   symmetry.
   444 basis functions,   963 primitive gaussians,   519 cartesian basis functions
   116 alpha electrons      116 beta electrons
       nuclear repulsion energy      3573.7539278615 Hartrees.
 IExCor= 1009 DFT=T Ex+Corr=PBE1PBE ExCW=0 ScaHFX=  0.250000
 ScaDFX=  0.750000  0.750000  1.000000  1.000000 ScalE2=  1.000000  1.000000
 IRadAn=      0 IRanWt=     -1 IRanGd=            0 ICorTp=0 IEmpDi=  4
 NAtoms=    9 NActive=    9 NUniq=    9 SFac= 1.00D+00 NAtFMM=   60 NAOKFM=F Big=F
 Integral buffers will be    131072 words long.
 Raffenetti 2 integral format.
 Two-electron integral symmetry is turned on.
 Leave Link  301 at Thu Mar  8 05:27:17 2018, MaxMem=   536870912 cpu:         0.2
 (Enter /share/apps//mg09/l302.exe)
 NPDir=0 NMtPBC=     1 NCelOv=     1 NCel=       1 NClECP=     1 NCelD=      1
         NCelK=      1 NCelE2=     1 NClLst=     1 CellRange=     0.0.
 One-electron integrals computed using PRISM.
   1 Symmetry operations used in ECPInt.
 ECPInt:  NShTT=   10440 NPrTT=   41973 LenC2=    9683 LenP2D=   27615.
 LDataN:  DoStor=T MaxTD1= 8 Len=  415
 NBasis=   444 RedAO= T EigKep=  1.34D-03  NBF=   444
 NBsUse=   444 1.00D-06 EigRej= -1.00D+00 NBFU=   444
 Precomputing XC quadrature grid using
 IXCGrd= 4 IRadAn=           0 IRanWt=          -1 IRanGd=           0 AccXCQ= 0.00D+00.
 Defaulting to unpruned grid for atomic number  83.
 Defaulting to unpruned grid for atomic number  50.
 Defaulting to unpruned grid for atomic number  83.
 Generated NRdTot=       0 NPtTot=           0 NUsed=           0 NTot=          32
 NSgBfM=   501   501   501   501   501 MxSgAt=     9 MxSgA2=     9.
 Leave Link  302 at Thu Mar  8 05:27:26 2018, MaxMem=   536870912 cpu:        35.1
 (Enter /share/apps//mg09/l303.exe)
 DipDrv:  MaxL=1.
 Leave Link  303 at Thu Mar  8 05:27:27 2018, MaxMem=   536870912 cpu:         0.3
 (Enter /share/apps//mg09/l401.exe)
 Initial guess from the checkpoint file:  "Isomer_07.chk"
 B after Tr=     0.000000    0.000000    0.000000
         Rot=    1.000000   -0.000039    0.000812    0.000005 Ang=  -0.09 deg.
 Guess basis will be translated and rotated to current coordinates.
 JPrj=2 DoOrth=T DoCkMO=T.
 Generating alternative initial guess.
 ExpMin= 4.62D-02 ExpMax= 4.66D+05 ExpMxC= 4.50D+03 IAcc=2 IRadAn=         4 AccDes= 0.00D+00
 Harris functional with IExCor= 1009 and IRadAn=       4 diagonalized for initial guess.
 HarFok:  IExCor= 1009 AccDes= 0.00D+00 IRadAn=         4 IDoV= 1 UseB2=F ITyADJ=14
 ICtDFT=  3500011 ScaDFX=  1.000000  1.000000  1.000000  1.000000
 Defaulting to unpruned grid for atomic number  83.
 Defaulting to unpruned grid for atomic number  83.
 Defaulting to unpruned grid for atomic number  83.
 Defaulting to unpruned grid for atomic number  83.
 FoFCou: FMM=F IPFlag=           0 FMFlag=      100000 FMFlg1=           0
         NFxFlg=           0 DoJE=T BraDBF=F KetDBF=T FulRan=T
         wScrn=  0.000000 ICntrl=     500 IOpCl=  0 I1Cent=   200000004 NGrid=           0
         NMat0=    1 NMatS0=      1 NMatT0=    0 NMatD0=    1 NMtDS0=    0 NMtDT0=    0
 Petite list used in FoFCou.
 Harris En= -7518.60742082493    
 Leave Link  401 at Thu Mar  8 05:27:30 2018, MaxMem=   536870912 cpu:        13.9
 (Enter /share/apps//mg09/l502.exe)
 Closed shell SCF:
 Using DIIS extrapolation, IDIIS=  1040.
 Integral symmetry usage will be decided dynamically.
 IVT=     1410107 IEndB=     1410107 NGot=   536870912 MDV=   536322046
 LenX=   536322046 LenY=   536052166
 Requested convergence on RMS density matrix=1.00D-08 within 768 cycles.
 Requested convergence on MAX density matrix=1.00D-06.
 Requested convergence on             energy=1.00D-06.
 No special actions if energy rises.
 Fock matrices will be formed incrementally for  20 cycles.

 Cycle   1  Pass 1  IDiag  1:
 FoFJK:  IHMeth= 1 ICntrl=       0 DoSepK=F KAlg= 0 I1Cent=   0 FoldK=F
 IRaf= 880000000 NMat=   1 IRICut=       1 DoRegI=T DoRafI=F ISym2E= 0.
 FoFCou: FMM=F IPFlag=           0 FMFlag=      100000 FMFlg1=           0
         NFxFlg=           0 DoJE=F BraDBF=F KetDBF=F FulRan=T
         wScrn=  0.000000 ICntrl=       0 IOpCl=  0 I1Cent=           0 NGrid=           0
         NMat0=    1 NMatS0=      1 NMatT0=    0 NMatD0=    1 NMtDS0=    0 NMtDT0=    0
 Symmetry not used in FoFCou.
 Defaulting to unpruned grid for atomic number  83.
 Defaulting to unpruned grid for atomic number  83.
 Defaulting to unpruned grid for atomic number  83.
 Defaulting to unpruned grid for atomic number  83.
 E= -7517.82024955581    
 DIIS: error= 5.30D-03 at cycle   1 NSaved=   1.
 NSaved= 1 IEnMin= 1 EnMin= -7517.82024955581     IErMin= 1 ErrMin= 5.30D-03
 ErrMax= 5.30D-03  0.00D+00 EMaxC= 1.00D-01 BMatC= 8.93D-03 BMatP= 8.93D-03
 IDIUse=3 WtCom= 9.47D-01 WtEn= 5.30D-02
 Coeff-Com:  0.100D+01
 Coeff-En:   0.100D+01
 Coeff:      0.100D+01
 Gap=     7.172 Goal=   None    Shift=    0.000
 GapD=    7.172 DampG=2.000 DampE=1.000 DampFc=2.0000 IDamp=-1.
 RMSDP=1.80D-04 MaxDP=4.54D-03              OVMax= 2.39D-02

 Cycle   2  Pass 1  IDiag  1:
 RMSU=  1.79D-04    CP:  1.00D+00
 E= -7517.82035953504     Delta-E=       -0.000109979235 Rises=F Damp=F
 DIIS: error= 1.48D-03 at cycle   2 NSaved=   2.
 NSaved= 2 IEnMin= 2 EnMin= -7517.82035953504     IErMin= 2 ErrMin= 1.48D-03
 ErrMax= 1.48D-03  0.00D+00 EMaxC= 1.00D-01 BMatC= 1.51D-03 BMatP= 8.93D-03
 IDIUse=3 WtCom= 9.85D-01 WtEn= 1.48D-02
 Coeff-Com:  0.182D+00 0.818D+00
 Coeff-En:   0.466D+00 0.534D+00
 Coeff:      0.186D+00 0.814D+00
 Gap=     0.120 Goal=   None    Shift=    0.000
 RMSDP=1.98D-04 MaxDP=7.75D-03 DE=-1.10D-04 OVMax= 1.49D-02

 Cycle   3  Pass 1  IDiag  1:
 RMSU=  1.80D-04    CP:  9.99D-01  5.67D-01
 E= -7517.81887035751     Delta-E=        0.001489177530 Rises=F Damp=F
 DIIS: error= 2.25D-03 at cycle   3 NSaved=   3.
 NSaved= 3 IEnMin= 2 EnMin= -7517.82035953504     IErMin= 2 ErrMin= 1.48D-03
 ErrMax= 2.25D-03  0.00D+00 EMaxC= 1.00D-01 BMatC= 3.45D-03 BMatP= 1.51D-03
 IDIUse=3 WtCom= 1.74D-01 WtEn= 8.26D-01
 Coeff-Com:  0.266D-02 0.601D+00 0.396D+00
 Coeff-En:   0.000D+00 0.651D+00 0.349D+00
 Coeff:      0.464D-03 0.643D+00 0.357D+00
 Gap=     0.122 Goal=   None    Shift=    0.000
 RMSDP=1.01D-04 MaxDP=4.27D-03 DE= 1.49D-03 OVMax= 9.06D-03

 Cycle   4  Pass 1  IDiag  1:
 RMSU=  1.85D-05    CP:  9.99D-01  8.23D-01  5.21D-01
 E= -7517.82147446850     Delta-E=       -0.002604110981 Rises=F Damp=F
 DIIS: error= 3.01D-04 at cycle   4 NSaved=   4.
 NSaved= 4 IEnMin= 4 EnMin= -7517.82147446850     IErMin= 4 ErrMin= 3.01D-04
 ErrMax= 3.01D-04  0.00D+00 EMaxC= 1.00D-01 BMatC= 7.31D-05 BMatP= 1.51D-03
 IDIUse=3 WtCom= 9.97D-01 WtEn= 3.01D-03
 Coeff-Com: -0.965D-03 0.321D+00 0.142D+00 0.537D+00
 Coeff-En:   0.000D+00 0.000D+00 0.000D+00 0.100D+01
 Coeff:     -0.962D-03 0.321D+00 0.142D+00 0.539D+00
 Gap=     0.122 Goal=   None    Shift=    0.000
 RMSDP=1.92D-05 MaxDP=8.13D-04 DE=-2.60D-03 OVMax= 1.95D-03

 Cycle   5  Pass 1  IDiag  1:
 RMSU=  9.47D-06    CP:  9.99D-01  8.77D-01  4.55D-01  6.54D-01
 E= -7517.82152202550     Delta-E=       -0.000047557009 Rises=F Damp=F
 DIIS: error= 6.81D-05 at cycle   5 NSaved=   5.
 NSaved= 5 IEnMin= 5 EnMin= -7517.82152202550     IErMin= 5 ErrMin= 6.81D-05
 ErrMax= 6.81D-05  0.00D+00 EMaxC= 1.00D-01 BMatC= 3.97D-06 BMatP= 7.31D-05
 IDIUse=1 WtCom= 1.00D+00 WtEn= 0.00D+00
 Coeff-Com: -0.779D-03 0.193D+00 0.796D-01 0.378D+00 0.350D+00
 Coeff:     -0.779D-03 0.193D+00 0.796D-01 0.378D+00 0.350D+00
 Gap=     0.122 Goal=   None    Shift=    0.000
 RMSDP=7.34D-06 MaxDP=3.94D-04 DE=-4.76D-05 OVMax= 7.85D-04

 Cycle   6  Pass 1  IDiag  1:
 RMSU=  4.01D-06    CP:  9.99D-01  8.80D-01  4.54D-01  7.89D-01  4.13D-01
 E= -7517.82152632898     Delta-E=       -0.000004303480 Rises=F Damp=F
 DIIS: error= 2.70D-05 at cycle   6 NSaved=   6.
 NSaved= 6 IEnMin= 6 EnMin= -7517.82152632898     IErMin= 6 ErrMin= 2.70D-05
 ErrMax= 2.70D-05  0.00D+00 EMaxC= 1.00D-01 BMatC= 7.37D-07 BMatP= 3.97D-06
 IDIUse=1 WtCom= 1.00D+00 WtEn= 0.00D+00
 Coeff-Com: -0.295D-03 0.462D-01 0.168D-01 0.125D+00 0.286D+00 0.526D+00
 Coeff:     -0.295D-03 0.462D-01 0.168D-01 0.125D+00 0.286D+00 0.526D+00
 Gap=     0.122 Goal=   None    Shift=    0.000
 RMSDP=2.90D-06 MaxDP=1.39D-04 DE=-4.30D-06 OVMax= 3.69D-04

 Cycle   7  Pass 1  IDiag  1:
 RMSU=  1.53D-06    CP:  9.99D-01  8.84D-01  4.57D-01  7.81D-01  6.27D-01
                    CP:  7.45D-01
 E= -7517.82152722651     Delta-E=       -0.000000897528 Rises=F Damp=F
 DIIS: error= 8.66D-06 at cycle   7 NSaved=   7.
 NSaved= 7 IEnMin= 7 EnMin= -7517.82152722651     IErMin= 7 ErrMin= 8.66D-06
 ErrMax= 8.66D-06  0.00D+00 EMaxC= 1.00D-01 BMatC= 7.89D-08 BMatP= 7.37D-07
 IDIUse=1 WtCom= 1.00D+00 WtEn= 0.00D+00
 Coeff-Com: -0.109D-04-0.156D-01-0.670D-02-0.822D-02 0.995D-01 0.313D+00
 Coeff-Com:  0.618D+00
 Coeff:     -0.109D-04-0.156D-01-0.670D-02-0.822D-02 0.995D-01 0.313D+00
 Coeff:      0.618D+00
 Gap=     0.122 Goal=   None    Shift=    0.000
 RMSDP=1.07D-06 MaxDP=6.63D-05 DE=-8.98D-07 OVMax= 1.33D-04

 Cycle   8  Pass 1  IDiag  1:
 RMSU=  4.33D-07    CP:  9.99D-01  8.85D-01  4.59D-01  7.95D-01  6.52D-01
                    CP:  8.95D-01  6.65D-01
 E= -7517.82152730735     Delta-E=       -0.000000080836 Rises=F Damp=F
 DIIS: error= 2.43D-06 at cycle   8 NSaved=   8.
 NSaved= 8 IEnMin= 8 EnMin= -7517.82152730735     IErMin= 8 ErrMin= 2.43D-06
 ErrMax= 2.43D-06  0.00D+00 EMaxC= 1.00D-01 BMatC= 8.62D-09 BMatP= 7.89D-08
 IDIUse=1 WtCom= 1.00D+00 WtEn= 0.00D+00
 Coeff-Com:  0.277D-04-0.138D-01-0.533D-02-0.177D-01 0.238D-01 0.114D+00
 Coeff-Com:  0.360D+00 0.539D+00
 Coeff:      0.277D-04-0.138D-01-0.533D-02-0.177D-01 0.238D-01 0.114D+00
 Coeff:      0.360D+00 0.539D+00
 Gap=     0.122 Goal=   None    Shift=    0.000
 RMSDP=2.89D-07 MaxDP=9.68D-06 DE=-8.08D-08 OVMax= 4.00D-05

 Cycle   9  Pass 1  IDiag  1:
 RMSU=  1.53D-07    CP:  9.99D-01  8.85D-01  4.60D-01  8.02D-01  6.62D-01
                    CP:  8.95D-01  7.50D-01  8.09D-01
 E= -7517.82152731573     Delta-E=       -0.000000008387 Rises=F Damp=F
 DIIS: error= 6.10D-07 at cycle   9 NSaved=   9.
 NSaved= 9 IEnMin= 9 EnMin= -7517.82152731573     IErMin= 9 ErrMin= 6.10D-07
 ErrMax= 6.10D-07  0.00D+00 EMaxC= 1.00D-01 BMatC= 4.27D-10 BMatP= 8.62D-09
 IDIUse=1 WtCom= 1.00D+00 WtEn= 0.00D+00
 Coeff-Com:  0.120D-04-0.482D-02-0.173D-02-0.689D-02 0.326D-02 0.305D-01
 Coeff-Com:  0.117D+00 0.243D+00 0.620D+00
 Coeff:      0.120D-04-0.482D-02-0.173D-02-0.689D-02 0.326D-02 0.305D-01
 Coeff:      0.117D+00 0.243D+00 0.620D+00
 Gap=     0.122 Goal=   None    Shift=    0.000
 RMSDP=1.25D-07 MaxDP=5.56D-06 DE=-8.39D-09 OVMax= 1.92D-05

 Cycle  10  Pass 1  IDiag  1:
 RMSU=  1.10D-07    CP:  9.99D-01  8.85D-01  4.60D-01  8.03D-01  6.64D-01
                    CP:  8.98D-01  7.70D-01  8.57D-01  8.21D-01
 E= -7517.82152731574     Delta-E=       -0.000000000005 Rises=F Damp=F
 DIIS: error= 8.26D-07 at cycle  10 NSaved=  10.
 NSaved=10 IEnMin=10 EnMin= -7517.82152731574     IErMin= 9 ErrMin= 6.10D-07
 ErrMax= 8.26D-07  0.00D+00 EMaxC= 1.00D-01 BMatC= 7.74D-10 BMatP= 4.27D-10
 IDIUse=1 WtCom= 1.00D+00 WtEn= 0.00D+00
 Coeff-Com:  0.282D-05-0.304D-03 0.272D-04-0.116D-02-0.486D-02-0.710D-02
 Coeff-Com: -0.221D-02 0.639D-01 0.604D+00 0.348D+00
 Coeff:      0.282D-05-0.304D-03 0.272D-04-0.116D-02-0.486D-02-0.710D-02
 Coeff:     -0.221D-02 0.639D-01 0.604D+00 0.348D+00
 Gap=     0.122 Goal=   None    Shift=    0.000
 RMSDP=8.13D-08 MaxDP=3.42D-06 DE=-5.46D-12 OVMax= 9.84D-06

 Cycle  11  Pass 1  IDiag  1:
 RMSU=  3.08D-08    CP:  9.99D-01  8.85D-01  4.60D-01  8.03D-01  6.65D-01
                    CP:  9.04D-01  7.69D-01  8.77D-01  1.04D+00  4.41D-01
 E= -7517.82152731697     Delta-E=       -0.000000001235 Rises=F Damp=F
 DIIS: error= 1.15D-07 at cycle  11 NSaved=  11.
 NSaved=11 IEnMin=11 EnMin= -7517.82152731697     IErMin=11 ErrMin= 1.15D-07
 ErrMax= 1.15D-07  0.00D+00 EMaxC= 1.00D-01 BMatC= 2.41D-11 BMatP= 4.27D-10
 IDIUse=1 WtCom= 1.00D+00 WtEn= 0.00D+00
 Coeff-Com: -0.510D-06 0.670D-03 0.323D-03 0.519D-03-0.326D-02-0.921D-02
 Coeff-Com: -0.233D-01-0.266D-02 0.266D+00 0.200D+00 0.571D+00
 Coeff:     -0.510D-06 0.670D-03 0.323D-03 0.519D-03-0.326D-02-0.921D-02
 Coeff:     -0.233D-01-0.266D-02 0.266D+00 0.200D+00 0.571D+00
 Gap=     0.122 Goal=   None    Shift=    0.000
 RMSDP=1.90D-08 MaxDP=1.53D-06 DE=-1.24D-09 OVMax= 2.88D-06

 Cycle  12  Pass 1  IDiag  1:
 RMSU=  9.65D-09    CP:  9.99D-01  8.85D-01  4.60D-01  8.03D-01  6.65D-01
                    CP:  9.06D-01  7.67D-01  8.93D-01  1.08D+00  5.01D-01
                    CP:  7.95D-01
 E= -7517.82152731675     Delta-E=        0.000000000220 Rises=F Damp=F
 DIIS: error= 3.76D-08 at cycle  12 NSaved=  12.
 NSaved=12 IEnMin=11 EnMin= -7517.82152731697     IErMin=12 ErrMin= 3.76D-08
 ErrMax= 3.76D-08  0.00D+00 EMaxC= 1.00D-01 BMatC= 2.21D-12 BMatP= 2.41D-11
 IDIUse=1 WtCom= 1.00D+00 WtEn= 0.00D+00
 Coeff-Com: -0.622D-06 0.415D-03 0.177D-03 0.452D-03-0.118D-02-0.434D-02
 Coeff-Com: -0.127D-01-0.101D-01 0.789D-01 0.691D-01 0.295D+00 0.584D+00
 Coeff:     -0.622D-06 0.415D-03 0.177D-03 0.452D-03-0.118D-02-0.434D-02
 Coeff:     -0.127D-01-0.101D-01 0.789D-01 0.691D-01 0.295D+00 0.584D+00
 Gap=     0.122 Goal=   None    Shift=    0.000
 RMSDP=6.07D-09 MaxDP=3.78D-07 DE= 2.20D-10 OVMax= 8.96D-07

 SCF Done:  E(RPBE1PBE) =  -7517.82152732     A.U. after   12 cycles
            NFock= 12  Conv=0.61D-08     -V/T= 2.1284
 KE= 6.662139083147D+03 PE=-2.473868528076D+04 EE= 6.984970742438D+03
 Leave Link  502 at Thu Mar  8 05:39:07 2018, MaxMem=   536870912 cpu:      2617.4
 (Enter /share/apps//mg09/l701.exe)
 Compute integral first derivatives.
 ... and contract with generalized density number  0.
   1 Symmetry operations used in ECPInt.
 ECPInt:  NShTT=   10440 NPrTT=   41973 LenC2=    9683 LenP2D=   27615.
 LDataN:  DoStor=T MaxTD1= 9 Len=  602
 Leave Link  701 at Thu Mar  8 05:39:27 2018, MaxMem=   536870912 cpu:        76.8
 (Enter /share/apps//mg09/l702.exe)
 L702 exits ... SP integral derivatives will be done elsewhere.
 Leave Link  702 at Thu Mar  8 05:39:27 2018, MaxMem=   536870912 cpu:         0.0
 (Enter /share/apps//mg09/l703.exe)
 Compute integral first derivatives, UseDBF=F ICtDFT=           0.
 Integral derivatives from FoFJK, PRISM(SPDF).
 Calling FoFJK, ICntrl=      2127 FMM=F ISym2X=0 I1Cent= 0 IOpClX= 0 NMat=1 NMatS=1 NMatT=0.
 FoFJK:  IHMeth= 1 ICntrl=    2127 DoSepK=F KAlg= 0 I1Cent=   0 FoldK=F
 IRaf=         0 NMat=   1 IRICut=       1 DoRegI=T DoRafI=F ISym2E= 0.
 FoFCou: FMM=F IPFlag=           0 FMFlag=      100000 FMFlg1=         800
         NFxFlg=           0 DoJE=F BraDBF=F KetDBF=F FulRan=T
         wScrn=  0.000000 ICntrl=    2127 IOpCl=  0 I1Cent=           0 NGrid=           0
         NMat0=    1 NMatS0=      1 NMatT0=    0 NMatD0=    1 NMtDS0=    0 NMtDT0=    0
 Symmetry not used in FoFCou.
 Defaulting to unpruned grid for atomic number  83.
 Defaulting to unpruned grid for atomic number  83.
 Defaulting to unpruned grid for atomic number  83.
 Defaulting to unpruned grid for atomic number  83.
 Leave Link  703 at Thu Mar  8 05:42:56 2018, MaxMem=   536870912 cpu:       830.9
 (Enter /share/apps//mg09/l716.exe)
 Dipole        = 1.31755659D-01 3.15762189D-04-2.49288694D-01
 ***** Axes restored to original set *****
 -------------------------------------------------------------------
 Center     Atomic                   Forces (Hartrees/Bohr)
 Number     Number              X              Y              Z
 -------------------------------------------------------------------
      1       83          -0.002450604   -0.000013681   -0.000866835
      2       32          -0.000285292   -0.004161858    0.005013852
      3       83           0.002454317   -0.000990288    0.000492220
      4       32          -0.000275650    0.004138071    0.004991075
      5       83           0.002906534    0.000017409   -0.002131665
      6       83           0.002452676    0.000965874    0.000490933
      7       50          -0.004542719    0.004950231   -0.001188070
      8       32           0.004250811   -0.000003259   -0.005611806
      9       50          -0.004510073   -0.004902499   -0.001189705
 -------------------------------------------------------------------
 Cartesian Forces:  Max     0.005611806 RMS     0.003107590
 Leave Link  716 at Thu Mar  8 05:42:56 2018, MaxMem=   536870912 cpu:         0.1
 (Enter /share/apps//mg09/l103.exe)

 GradGradGradGradGradGradGradGradGradGradGradGradGradGradGradGradGradGrad
 Berny optimization.
 Search for a local minimum.
 Step number   2 out of a maximum of  100
 All quantities printed in internal units (Hartrees-Bohrs-Radians)
 Update second derivatives using D2CorN and points    1    2
 DE= -5.57D-03 DEPred=-4.12D-03 R= 1.35D+00
 TightC=F SS=  1.41D+00  RLast= 2.23D-01 DXNew= 5.0454D-01 6.7023D-01
 Trust test= 1.35D+00 RLast= 2.23D-01 DXMaxT set to 5.05D-01
 ITU=  1  0
     Eigenvalues ---    0.07148   0.08221   0.10912   0.10995   0.11959
     Eigenvalues ---    0.12833   0.12997   0.14125   0.14358   0.14900
     Eigenvalues ---    0.16000   0.20548   0.22244   0.22600   0.23694
     Eigenvalues ---    0.23749   0.25434   0.26525   0.26623   0.29066
     Eigenvalues ---    0.30057
 RFO step:  Lambda=-4.57550598D-04 EMin= 7.14843561D-02
 Quartic linear search produced a step of  0.59687.
 TrRot=  0.000262 -0.000003  0.000355  0.000000  0.000075  0.000000
 Variable       Old X    -DE/DX   Delta X   Delta X   Delta X     New X
                                 (Linear)    (Quad)   (Total)
    X1        4.68248  -0.00245  -0.03287   0.00446  -0.02832   4.65417
    Y1        0.00213  -0.00001  -0.00009  -0.00007  -0.00017   0.00197
    Z1       -2.18548  -0.00087   0.01853  -0.01530   0.00324  -2.18224
    X2        0.50740  -0.00029  -0.00031  -0.00029  -0.00059   0.50681
    Y2        3.08430  -0.00416  -0.03746   0.00028  -0.03718   3.04712
    Z2       -3.29955   0.00501   0.03042   0.01115   0.04188  -3.25767
    X3       -2.33040   0.00245   0.01973  -0.00223   0.01787  -2.31254
    Y3        3.89004  -0.00099  -0.03422   0.01103  -0.02319   3.86684
    Z3        1.28274   0.00049  -0.00781   0.00956   0.00228   1.28502
    X4        0.50829  -0.00028  -0.00031  -0.00032  -0.00061   0.50768
    Y4       -3.08065   0.00414   0.03735  -0.00037   0.03698  -3.04368
    Z4       -3.30177   0.00499   0.03032   0.01102   0.04166  -3.26011
    X5       -3.87448   0.00291   0.02969  -0.00339   0.02637  -3.84811
    Y5        0.00088   0.00002   0.00007   0.00006   0.00012   0.00100
    Z5       -2.56155  -0.00213   0.01616  -0.03076  -0.01395  -2.57550
    X6       -2.33037   0.00245   0.01972  -0.00224   0.01784  -2.31253
    Y6       -3.89106   0.00097   0.03413  -0.01114   0.02299  -3.86808
    Z6        1.27936   0.00049  -0.00784   0.00943   0.00211   1.28148
    X7        3.14330  -0.00454  -0.02892  -0.00564  -0.03412   3.10918
    Y7       -2.99331   0.00495   0.03604   0.00864   0.04468  -2.94863
    Z7        2.39839  -0.00119  -0.01769   0.00336  -0.01421   2.38418
    X8       -0.80175   0.00425   0.02214   0.01273   0.03549  -0.76625
    Y8       -0.00250   0.00000   0.00002  -0.00003  -0.00002  -0.00252
    Z8        4.78368  -0.00561  -0.04433  -0.00470  -0.04862   4.73507
    X9        3.14250  -0.00451  -0.02887  -0.00551  -0.03393   3.10856
    Y9        2.98921  -0.00490  -0.03582  -0.00839  -0.04420   2.94500
    Z9        2.40305  -0.00119  -0.01777   0.00325  -0.01440   2.38865
         Item               Value     Threshold  Converged?
 Maximum Force            0.005612     0.000450     NO 
 RMS     Force            0.003108     0.000300     NO 
 Maximum Displacement     0.048615     0.001800     NO 
 RMS     Displacement     0.027185     0.001200     NO 
 Predicted change in Energy=-1.174873D-03
 Lowest energy point so far.  Saving SCF results.
 GradGradGradGradGradGradGradGradGradGradGradGradGradGradGradGradGradGrad

 Leave Link  103 at Thu Mar  8 05:42:56 2018, MaxMem=   536870912 cpu:         0.1
 (Enter /share/apps//mg09/l202.exe)
                          Input orientation:                          
 ---------------------------------------------------------------------
 Center     Atomic      Atomic             Coordinates (Angstroms)
 Number     Number       Type             X           Y           Z
 ---------------------------------------------------------------------
      1         83           0        2.462878    0.001040   -1.154792
      2         32           0        0.268193    1.612464   -1.723883
      3         83           0       -1.223741    2.046246    0.680002
      4         32           0        0.268651   -1.610645   -1.725175
      5         83           0       -2.036332    0.000530   -1.362898
[...]
     X     X    X   X           X        X            X                                                                              
           X    X   X           X        X            X                                                                              
           X    X   X           X        X            X                                                                              
           X    X   X           X        X            X                                                                              
           X    X   X                    X            X                                                                              
                X   X                    X            X                                                                              
                X   X                    X                                                                                           
                X   X                    X                                                                                           
                X   X                    X                                                                                           
                X   X                    X                                                                                           
                X   X                    X                                                                                           
                    X                                                                                                                
                    X                                                                                                                
                    X                                                                                                                
                    X                                                                                                                
 
 ***** Axes restored to original set *****
 -------------------------------------------------------------------
 Center     Atomic                   Forces (Hartrees/Bohr)
 Number     Number              X              Y              Z
 -------------------------------------------------------------------
      1       83          -0.000229924    0.000001434   -0.000086990
      2       32          -0.000104639    0.000091632   -0.000048002
      3       83           0.000037324   -0.000083596   -0.000042731
      4       32          -0.000102071   -0.000093403   -0.000044904
      5       83           0.000036829    0.000000309   -0.000065099
      6       83           0.000034872    0.000084048   -0.000041097
      7       50           0.000115857    0.000064320    0.000210133
      8       32           0.000095995    0.000000361   -0.000097165
      9       50           0.000115756   -0.000065106    0.000215854
 -------------------------------------------------------------------
 Cartesian Forces:  Max     0.000229924 RMS     0.000100668
 Force constants in Cartesian coordinates: 
                1             2             3             4             5 
      1  0.858795D-01
      2  0.932365D-05  0.531828D-01
      3 -0.147515D-01  0.000000D+00  0.604949D-01
      4 -0.316949D-01  0.213703D-01 -0.536436D-02  0.713161D-01
      5  0.197031D-01 -0.147758D-01  0.393293D-02 -0.500715D-02  0.422364D-01
      6 -0.343607D-02  0.481323D-02 -0.412584D-02 -0.937970D-02 -0.149689D-01
      7 -0.240774D-02  0.237417D-02  0.644748D-03 -0.123446D-01  0.640629D-02
      8 -0.919113D-03 -0.442864D-03 -0.559769D-03  0.514180D-02 -0.246224D-02
      9  0.335642D-03 -0.180647D-02 -0.136696D-03  0.149720D-01 -0.192323D-02
     10 -0.316986D-01 -0.213671D-01 -0.538996D-02  0.138210D-02  0.451360D-04
     11 -0.197019D-01 -0.147692D-01 -0.394535D-02 -0.484715D-04 -0.150545D-02
     12 -0.345983D-02 -0.482557D-02 -0.413485D-02  0.226694D-02  0.170789D-02
     13 -0.393511D-02  0.127615D-05 -0.169186D-02 -0.275654D-01 -0.158896D-01
     14 -0.145287D-05 -0.122226D-02  0.000000D+00 -0.169170D-01 -0.122057D-01
     15  0.176646D-02  0.000000D+00 -0.115474D-02  0.272311D-03  0.327176D-02
     16 -0.240799D-02 -0.237562D-02  0.643298D-03  0.147360D-02  0.221714D-02
     17  0.918359D-03 -0.445799D-03  0.559170D-03 -0.150698D-02 -0.561434D-02
     18  0.336637D-03  0.180683D-02 -0.134764D-03  0.615848D-02  0.627856D-02
     19 -0.650792D-02 -0.559067D-02  0.112370D-01  0.883642D-03 -0.253809D-02
     20 -0.432388D-02 -0.966842D-02  0.156603D-01  0.240203D-02 -0.491870D-02
     21  0.976873D-02  0.160710D-01 -0.236292D-01 -0.590779D-02  0.283556D-02
     22 -0.717492D-03 -0.225985D-05  0.342757D-02 -0.165638D-02 -0.235460D-02
     23  0.000000D+00 -0.222290D-02  0.148514D-05 -0.291158D-02 -0.330646D-03
     24 -0.334270D-03  0.000000D+00 -0.351695D-02  0.570237D-03 -0.208439D-02
     25 -0.650972D-02  0.558053D-02  0.112451D-01 -0.179413D-02 -0.258226D-02
     26  0.431532D-02 -0.963561D-02 -0.156476D-01 -0.252297D-02 -0.423557D-03
     27  0.977422D-02 -0.160587D-01 -0.236619D-01 -0.358811D-02  0.949792D-03
                6             7             8             9            10 
      6  0.486735D-01
      7  0.153073D-01  0.685082D-01
      8 -0.926473D-03 -0.192691D-01  0.585063D-01
      9 -0.248090D-01  0.259519D-02  0.140155D-01  0.654226D-01
     10  0.226739D-02  0.147476D-02  0.150129D-02  0.616075D-02  0.713256D-01
     11 -0.170557D-02 -0.221811D-02 -0.560795D-02 -0.628126D-02  0.501889D-02
     12 -0.329732D-02  0.871728D-03  0.199721D-03 -0.279643D-02 -0.937954D-02
     13 -0.130589D-02 -0.747659D-02 -0.613623D-02 -0.885851D-02 -0.275740D-01
     14  0.357512D-02 -0.536883D-02 -0.205074D-01 -0.215811D-01  0.169191D-01
     15  0.642290D-03 -0.774307D-02 -0.227443D-01 -0.200725D-01  0.293148D-03
     16  0.874049D-03  0.158451D-02  0.329106D-02 -0.674417D-03 -0.123432D-01
     17 -0.202362D-03 -0.328927D-02 -0.597956D-02  0.971528D-03 -0.515915D-02
     18 -0.278918D-02 -0.677520D-03 -0.977771D-03 -0.190145D-03  0.149663D-01
     19 -0.669132D-03 -0.461078D-02 -0.113743D-03 -0.182810D-02 -0.179310D-02
     20  0.988848D-03  0.131165D-02 -0.354124D-02  0.253655D-02  0.252644D-02
     21 -0.283308D-02 -0.466247D-03 -0.373832D-03 -0.157363D-02 -0.358091D-02
     22 -0.474988D-03 -0.723756D-02  0.932866D-02 -0.538344D-02 -0.165680D-02
     23  0.559789D-02  0.100507D-01 -0.188500D-01  0.161955D-01  0.291027D-02
     24 -0.547653D-02 -0.450937D-02  0.129106D-01 -0.155904D-01  0.573107D-03
     25 -0.318292D-02 -0.374903D-01  0.717541D-02 -0.731911D-02  0.883170D-03
     26  0.282819D-02  0.100025D-01 -0.111508D-02 -0.212707D-02 -0.239487D-02
     27 -0.598485D-02 -0.602273D-02 -0.154372D-02 -0.253865D-03 -0.591034D-02
               11            12            13            14            15 
     11  0.422059D-01
     12  0.149599D-01  0.487018D-01
     13  0.158933D-01 -0.128650D-02  0.777779D-01
     14 -0.121970D-01 -0.358997D-02 -0.152886D-04  0.679127D-01
     15 -0.328666D-02  0.635411D-03  0.215020D-01  0.126476D-04  0.502398D-01
     16 -0.642461D-02  0.153009D-01 -0.747765D-02  0.537925D-02 -0.774006D-02
     17 -0.246662D-02  0.954327D-03  0.614693D-02 -0.205550D-01  0.227416D-01
     18  0.195051D-02 -0.248096D-01 -0.885338D-02  0.215781D-01 -0.200228D-01
     19  0.258599D-02 -0.317549D-02 -0.229128D-02  0.648281D-02 -0.160897D-02
     20 -0.419145D-03 -0.282226D-02  0.954267D-03 -0.619132D-03 -0.110935D-02
     21 -0.943289D-03 -0.598065D-02 -0.485411D-03  0.285406D-02 -0.282280D-02
     22  0.235549D-02 -0.472093D-03  0.833039D-03  0.277805D-05 -0.512508D-02
     23 -0.325925D-03 -0.559311D-02  0.000000D+00  0.121659D-04  0.286074D-05
     24  0.209029D-02 -0.548032D-02  0.146531D-02  0.237875D-05 -0.462011D-02
     25  0.253943D-02 -0.666141D-03 -0.229092D-02 -0.648133D-02 -0.161672D-02
     26 -0.491471D-02 -0.990928D-03 -0.953864D-03 -0.618511D-03  0.111148D-02
     27 -0.283858D-02 -0.283807D-02 -0.485741D-03 -0.285104D-02 -0.282458D-02
               16            17            18            19            20 
     16  0.685007D-01
     17  0.192672D-01  0.585394D-01
     18  0.261770D-02 -0.140233D-01  0.653941D-01
     19 -0.374852D-01 -0.717218D-02 -0.732942D-02  0.659495D-01
     20 -0.100000D-01 -0.112117D-02  0.212448D-02 -0.581735D-02  0.515334D-01
     21 -0.603642D-02  0.154115D-02 -0.250344D-03 -0.315097D-02 -0.149769D-01
     22 -0.723430D-02 -0.932015D-02 -0.539060D-02 -0.126276D-01  0.114461D-01
     23 -0.100427D-01 -0.188186D-01 -0.161982D-01  0.136605D-01 -0.948520D-02
     24 -0.451828D-02 -0.129135D-01 -0.156224D-01  0.788605D-02 -0.309565D-02
     25 -0.461056D-02  0.115228D-03 -0.182824D-02 -0.151727D-02  0.150077D-02
     26 -0.131167D-02 -0.353841D-02 -0.253921D-02 -0.149731D-02 -0.217604D-01
     27 -0.466786D-03  0.371305D-03 -0.157489D-02 -0.136092D-02  0.693973D-03
               21            22            23            24            25 
     21  0.424403D-01
     22  0.112178D-01  0.429152D-01
     23 -0.629142D-02 -0.220472D-05  0.595172D-01
     24 -0.773290D-02 -0.900119D-02 -0.428126D-05  0.657639D-01
     25 -0.135878D-02 -0.126181D-01 -0.136644D-01  0.786840D-02  0.659478D-01
     26 -0.716251D-03 -0.114538D-01 -0.949618D-02  0.309378D-02  0.581665D-02
     27  0.238225D-02  0.112020D-01  0.628930D-02 -0.772422D-02 -0.314160D-02
               26            27 
     26  0.515025D-01
     27  0.149876D-01  0.424802D-01
 Leave Link  716 at Thu Mar  8 09:02:44 2018, MaxMem=   536870912 cpu:         0.1
 (Enter /share/apps//mg09/l103.exe)

 GradGradGradGradGradGradGradGradGradGradGradGradGradGradGradGradGradGrad
 Berny optimization.
 Search for a local minimum.
 Step number   1 out of a maximum of    2
 All quantities printed in internal units (Hartrees-Bohrs-Radians)
 Second derivative matrix not updated -- analytic derivatives used.
 ITU=  0
     Eigenvalues ---    0.00352   0.01481   0.02140   0.03623   0.04413
     Eigenvalues ---    0.04473   0.05454   0.05837   0.06021   0.06379
     Eigenvalues ---    0.07147   0.07307   0.08585   0.09094   0.09822
     Eigenvalues ---    0.10107   0.11933   0.11956   0.13503   0.13906
     Eigenvalues ---    0.15475
 Angle between quadratic step and forces=  46.98 degrees.
 Linear search not attempted -- first point.
 TrRot= -0.000018 -0.000001  0.000124  0.000000  0.000031  0.000000
 Variable       Old X    -DE/DX   Delta X   Delta X   Delta X     New X
                                 (Linear)    (Quad)   (Total)
    X1        4.68398  -0.00023   0.00000  -0.00906  -0.00914   4.67484
    Y1        0.00122   0.00000   0.00000   0.00014   0.00015   0.00136
    Z1       -2.23655  -0.00009   0.00000  -0.00423  -0.00425  -2.24080
    X2        0.52472  -0.00010   0.00000  -0.00151  -0.00163   0.52309
    Y2        3.08704   0.00009   0.00000   0.01107   0.01107   3.09811
    Z2       -3.16388  -0.00005   0.00000   0.00258   0.00269  -3.16119
    X3       -2.37459   0.00004   0.00000  -0.00110  -0.00107  -2.37566
    Y3        3.81434  -0.00008   0.00000  -0.00592  -0.00592   3.80842
    Z3        1.31964  -0.00004   0.00000  -0.00025  -0.00005   1.31959
    X4        0.52486  -0.00010   0.00000  -0.00137  -0.00149   0.52337
    Y4       -3.08362  -0.00009   0.00000  -0.01114  -0.01115  -3.09477
    Z4       -3.16744  -0.00004   0.00000   0.00276   0.00287  -3.16457
    X5       -3.80844   0.00004   0.00000   0.00543   0.00533  -3.80311
    Y5        0.00124   0.00000   0.00000  -0.00001  -0.00001   0.00122
    Z5       -2.68887  -0.00007   0.00000  -0.01014  -0.00990  -2.69876
    X6       -2.37411   0.00003   0.00000  -0.00123  -0.00121  -2.37531
    Y6       -3.81621   0.00008   0.00000   0.00600   0.00599  -3.81022
    Z6        1.31537  -0.00004   0.00000  -0.00013   0.00007   1.31544
    X7        3.08667   0.00012   0.00000   0.00304   0.00309   3.08976
    Y7       -2.95391   0.00006   0.00000   0.00196   0.00196  -2.95195
    Z7        2.32903   0.00021   0.00000   0.00339   0.00342   2.33244
    X8       -0.70249   0.00010   0.00000   0.00287   0.00300  -0.69949
    Y8       -0.00270   0.00000   0.00000   0.00000   0.00000  -0.00270
    Z8        4.75965  -0.00010   0.00000   0.00128   0.00142   4.76107
    X9        3.08637   0.00012   0.00000   0.00307   0.00312   3.08949
    Y9        2.95164  -0.00007   0.00000  -0.00209  -0.00209   2.94955
    Z9        2.33192   0.00022   0.00000   0.00371   0.00373   2.33565
         Item               Value     Threshold  Converged?
 Maximum Force            0.000230     0.000450     YES
 RMS     Force            0.000101     0.000300     YES
 Maximum Displacement     0.011145     0.001800     NO 
 RMS     Displacement     0.004842     0.001200     NO 
 Predicted change in Energy=-4.513398D-06
 GradGradGradGradGradGradGradGradGradGradGradGradGradGradGradGradGradGrad

 Leave Link  103 at Thu Mar  8 09:02:44 2018, MaxMem=   536870912 cpu:         0.6
 (Enter /share/apps//mg09/l9999.exe)
 1\1\GINC-COMPUTE-0-1\Freq\RPBE1PBE\def2TZVP\Bi4Ge3Sn2\RODRIGO\08-Mar-2
 018\0\\#P Geom=AllCheck Guess=TCheck SCRF=Check GenChk RPBE1PBE/def2TZ
 VP Freq\\01Final_coords.xyz_07\\0,1\Bi,2.4786548399,0.0006434036,-1.18
 35332396\Ge,0.2776701865,1.6335913811,-1.6742545849\Bi,-1.2565788004,2
 .0184623401,0.698323341\Ge,0.2777432176,-1.6317819417,-1.6761366657\Bi
 ,-2.0153400034,0.0006537652,-1.4228862663\Bi,-1.2563228778,-2.01945276
 01,0.6960653088\Sn,1.6333945236,-1.5631425811,1.2324686043\Ge,-0.37174
 11187,-0.0014297798,2.5186985495\Sn,1.6332340327,1.5619431726,1.233996
 953\\Version=ES64L-G09RevD.01\State=1-A\HF=-7517.823221\RMSD=3.860e-09
 \RMSF=1.007e-04\ZeroPoint=0.005804\Thermal=0.0232899\Dipole=-0.1594549
 ,0.0001709,-0.2841626\DipoleDeriv=0.0958039,0.0000871,-0.160789,0.0000
 558,-0.1305939,-0.0000378,-0.088317,-0.0000363,-0.0649564,-0.0616379,0
 .0133695,-0.0500779,-0.0323831,0.0360641,0.013775,0.022191,0.0245061,0
 .0433582,-0.0302811,-0.0130182,-0.0432927,-0.0390646,0.063367,0.015599
 ,-0.0411276,0.0022666,-0.1605326,-0.0616352,-0.0133399,-0.0500959,0.03
 23545,0.0361092,-0.0137982,0.0222636,-0.0245547,0.0433229,0.0191143,-0
 .0000283,0.0788631,-0.0000146,-0.1357161,-0.0000814,0.0297201,-0.00008
 67,0.0343268,-0.0303175,0.013059,-0.0432621,0.0390952,0.0633582,-0.015
 36,-0.0410741,-0.0020219,-0.1606002,0.1024778,-0.1571848,0.1386404,-0.
 1356824,0.1525141,-0.0869025,0.0706621,-0.0494446,0.0799589,-0.1359612
 ,0.0000216,-0.0087802,0.0000306,-0.2375084,-0.0001836,-0.0451531,-0.00
 01929,0.1050808,0.1024368,0.1570341,0.1387943,0.1356086,0.1524057,0.08
 69895,0.070835,0.0495644,0.0800416\Polar=388.3921511,-0.0041294,376.55
 60679,5.619046,0.0063505,366.5027133\PG=C01 [X(Bi4Ge3Sn2)]\NImag=0\\0.
 08587952,0.00000932,0.05318284,-0.01475152,-0.00000099,0.06049492,-0.0
 3169495,0.02137031,-0.00536436,0.07131607,0.01970312,-0.01477582,0.003
 93293,-0.00500715,0.04223644,-0.00343607,0.00481323,-0.00412584,-0.009
 37970,-0.01496887,0.04867347,-0.00240774,0.00237417,0.00064475,-0.0123
 4457,0.00640629,0.01530726,0.06850823,-0.00091911,-0.00044286,-0.00055
 977,0.00514180,-0.00246224,-0.00092647,-0.01926913,0.05850629,0.000335
 64,-0.00180647,-0.00013670,0.01497199,-0.00192323,-0.02480895,0.002595
 19,0.01401554,0.06542262,-0.03169860,-0.02136706,-0.00538996,0.0013821
 0,0.00004514,0.00226739,0.00147476,0.00150129,0.00616075,0.07132564,-0
 .01970188,-0.01476916,-0.00394535,-0.00004847,-0.00150545,-0.00170557,
 -0.00221811,-0.00560795,-0.00628126,0.00501889,0.04220593,-0.00345983,
 -0.00482557,-0.00413485,0.00226694,0.00170789,-0.00329732,0.00087173,0
 .00019972,-0.00279643,-0.00937954,0.01495991,0.04870179,-0.00393511,0.
 00000128,-0.00169186,-0.02756539,-0.01588959,-0.00130589,-0.00747659,-
 0.00613623,-0.00885851,-0.02757401,0.01589328,-0.00128650,0.07777790,-
 0.00000145,-0.00122226,-0.00000021,-0.01691698,-0.01220568,0.00357512,
 -0.00536883,-0.02050738,-0.02158109,0.01691905,-0.01219696,-0.00358997
 ,-0.00001529,0.06791273,0.00176646,0.,-0.00115474,0.00027231,0.0032717
 6,0.00064229,-0.00774307,-0.02274434,-0.02007248,0.00029315,-0.0032866
 6,0.00063541,0.02150198,0.00001265,0.05023984,-0.00240799,-0.00237562,
 0.00064330,0.00147360,0.00221714,0.00087405,0.00158451,0.00329106,-0.0
 0067442,-0.01234316,-0.00642461,0.01530093,-0.00747765,0.00537925,-0.0
 0774006,0.06850072,0.00091836,-0.00044580,0.00055917,-0.00150698,-0.00
 561434,-0.00020236,-0.00328927,-0.00597956,0.00097153,-0.00515915,-0.0
 0246662,0.00095433,0.00614693,-0.02055496,0.02274162,0.01926721,0.0585
 3943,0.00033664,0.00180683,-0.00013476,0.00615848,0.00627856,-0.002789
 18,-0.00067752,-0.00097777,-0.00019015,0.01496635,0.00195051,-0.024809
 55,-0.00885338,0.02157810,-0.02002284,0.00261770,-0.01402328,0.0653941
 3,-0.00650792,-0.00559067,0.01123696,0.00088364,-0.00253809,-0.0006691
 3,-0.00461078,-0.00011374,-0.00182810,-0.00179310,0.00258599,-0.003175
 49,-0.00229128,0.00648281,-0.00160897,-0.03748517,-0.00717218,-0.00732
 942,0.06594948,-0.00432388,-0.00966842,0.01566034,0.00240203,-0.004918
 70,0.00098885,0.00131165,-0.00354124,0.00253655,0.00252644,-0.00041915
 ,-0.00282226,0.00095427,-0.00061913,-0.00110935,-0.01000003,-0.0011211
 7,0.00212448,-0.00581735,0.05153340,0.00976873,0.01607095,-0.02362916,
 -0.00590779,0.00283556,-0.00283308,-0.00046625,-0.00037383,-0.00157363
 ,-0.00358091,-0.00094329,-0.00598065,-0.00048541,0.00285406,-0.0028228
 0,-0.00603642,0.00154115,-0.00025034,-0.00315097,-0.01497694,0.0424403
 0,-0.00071749,-0.00000226,0.00342757,-0.00165638,-0.00235460,-0.000474
 99,-0.00723756,0.00932866,-0.00538344,-0.00165680,0.00235549,-0.000472
 09,0.00083304,0.00000278,-0.00512508,-0.00723430,-0.00932015,-0.005390
 60,-0.01262761,0.01144612,0.01121781,0.04291517,0.00000020,-0.00222290
 ,0.00000149,-0.00291158,-0.00033065,0.00559789,0.01005069,-0.01884998,
 0.01619550,0.00291027,-0.00032592,-0.00559311,-0.00000078,0.00001217,0
 .00000286,-0.01004273,-0.01881855,-0.01619823,0.01366055,-0.00948520,-
 0.00629142,-0.00000220,0.05951721,-0.00033427,0.00000069,-0.00351695,0
 .00057024,-0.00208439,-0.00547653,-0.00450937,0.01291065,-0.01559041,0
 .00057311,0.00209029,-0.00548032,0.00146531,0.00000238,-0.00462011,-0.
 00451828,-0.01291346,-0.01562242,0.00788605,-0.00309565,-0.00773290,-0
 .00900119,-0.00000428,0.06576386,-0.00650972,0.00558053,0.01124512,-0.
 00179413,-0.00258226,-0.00318292,-0.03749026,0.00717541,-0.00731911,0.
 00088317,0.00253943,-0.00066614,-0.00229092,-0.00648133,-0.00161672,-0
 .00461056,0.00011523,-0.00182824,-0.00151727,0.00150077,-0.00135878,-0
 .01261807,-0.01366442,0.00786840,0.06594776,0.00431532,-0.00963561,-0.
 01564760,-0.00252297,-0.00042356,0.00282819,0.01000254,-0.00111508,-0.
 00212707,-0.00239487,-0.00491471,-0.00099093,-0.00095386,-0.00061851,0
 .00111148,-0.00131167,-0.00353841,-0.00253921,-0.00149731,-0.02176039,
 -0.00071625,-0.01145384,-0.00949618,0.00309378,0.00581665,0.05150245,0
 .00977422,-0.01605865,-0.02366193,-0.00358811,0.00094979,-0.00598485,-
 0.00602273,-0.00154372,-0.00025387,-0.00591034,-0.00283858,-0.00283807
 ,-0.00048574,-0.00285104,-0.00282458,-0.00046679,0.00037130,-0.0015748
 9,-0.00136092,0.00069397,0.00238225,0.01120200,0.00628930,-0.00772422,
 -0.00314160,0.01498761,0.04248015\\0.00022992,-0.00000143,0.00008699,0
 .00010464,-0.00009163,0.00004800,-0.00003732,0.00008360,0.00004273,0.0
 0010207,0.00009340,0.00004490,-0.00003683,-0.00000031,0.00006510,-0.00
 003487,-0.00008405,0.00004110,-0.00011586,-0.00006432,-0.00021013,-0.0
 0009599,-0.00000036,0.00009717,-0.00011576,0.00006511,-0.00021585\\\@


 NATURE GIVES TO EVERY TIME AND SEASON SOME BEAUTY OF ITS OWN.

                                                    --DICKENS
 Job cpu time:       0 days  4 hours 32 minutes 48.7 seconds.
 File lengths (MBytes):  RWF=    299 Int=      0 D2E=      0 Chk=     16 Scr=      1
 Normal termination of Gaussian 09 at Thu Mar  8 09:02:46 2018.
