 Entering Gaussian System, Link 0=/share/apps/mg09/g09
 Initial command:
 /share/apps//mg09/l1.exe "/state/partition1/gauss_tmp/Gau-11572.inp" -scrdir="/state/partition1/gauss_tmp/"
 Entering Link 1 = /share/apps//mg09/l1.exe PID=     11574.
  
 Copyright (c) 1988,1990,1992,1993,1995,1998,2003,2009,2013,
            Gaussian, Inc.  All Rights Reserved.
  
 This is part of the Gaussian(R) 09 program.  It is based on
 the Gaussian(R) 03 system (copyright 2003, Gaussian, Inc.),
 the Gaussian(R) 98 system (copyright 1998, Gaussian, Inc.),
 the Gaussian(R) 94 system (copyright 1995, Gaussian, Inc.),
 the Gaussian 92(TM) system (copyright 1992, Gaussian, Inc.),
 the Gaussian 90(TM) system (copyright 1990, Gaussian, Inc.),
 the Gaussian 88(TM) system (copyright 1988, Gaussian, Inc.),
 the Gaussian 86(TM) system (copyright 1986, Carnegie Mellon
 University), and the Gaussian 82(TM) system (copyright 1983,
 Carnegie Mellon University). Gaussian is a federally registered
 trademark of Gaussian, Inc.
  
 This software contains proprietary and confidential information,
 including trade secrets, belonging to Gaussian, Inc.
  
 This software is provided under written license and may be
 used, copied, transmitted, or stored only in accord with that
 written license.
  
 The following legend is applicable only to US Government
 contracts under FAR:
  
                    RESTRICTED RIGHTS LEGEND
  
 Use, reproduction and disclosure by the US Government is
 subject to restrictions as set forth in subparagraphs (a)
 and (c) of the Commercial Computer Software - Restricted
 Rights clause in FAR 52.227-19.
  
 Gaussian, Inc.
 340 Quinnipiac St., Bldg. 40, Wallingford CT 06492
  
  
 ---------------------------------------------------------------
 Warning -- This program may not be used in any manner that
 competes with the business of Gaussian, Inc. or will provide
 assistance to any competitor of Gaussian, Inc.  The licensee
 of this program is prohibited from giving any competitor of
 Gaussian, Inc. access to this program.  By using this program,
 the user acknowledges that Gaussian, Inc. is engaged in the
 business of creating and licensing software in the field of
 computational chemistry and represents and warrants to the
 licensee that it is not a competitor of Gaussian, Inc. and that
 it will not use this program in any manner prohibited above.
 ---------------------------------------------------------------
  

 Cite this work as:
 Gaussian 09, Revision D.01,
 M. J. Frisch, G. W. Trucks, H. B. Schlegel, G. E. Scuseria, 
 M. A. Robb, J. R. Cheeseman, G. Scalmani, V. Barone, B. Mennucci, 
 G. A. Petersson, H. Nakatsuji, M. Caricato, X. Li, H. P. Hratchian, 
 A. F. Izmaylov, J. Bloino, G. Zheng, J. L. Sonnenberg, M. Hada, 
 M. Ehara, K. Toyota, R. Fukuda, J. Hasegawa, M. Ishida, T. Nakajima, 
 Y. Honda, O. Kitao, H. Nakai, T. Vreven, J. A. Montgomery, Jr., 
 J. E. Peralta, F. Ogliaro, M. Bearpark, J. J. Heyd, E. Brothers, 
 K. N. Kudin, V. N. Staroverov, T. Keith, R. Kobayashi, J. Normand, 
 K. Raghavachari, A. Rendell, J. C. Burant, S. S. Iyengar, J. Tomasi, 
 M. Cossi, N. Rega, J. M. Millam, M. Klene, J. E. Knox, J. B. Cross, 
 V. Bakken, C. Adamo, J. Jaramillo, R. Gomperts, R. E. Stratmann, 
 O. Yazyev, A. J. Austin, R. Cammi, C. Pomelli, J. W. Ochterski, 
 R. L. Martin, K. Morokuma, V. G. Zakrzewski, G. A. Voth, 
 P. Salvador, J. J. Dannenberg, S. Dapprich, A. D. Daniels, 
 O. Farkas, J. B. Foresman, J. V. Ortiz, J. Cioslowski, 
 and D. J. Fox, Gaussian, Inc., Wallingford CT, 2013.
 
 ******************************************
 Gaussian 09:  ES64L-G09RevD.01 24-Apr-2013
                 8-Mar-2018 
 ******************************************
 %NProcShared=4
 Will use up to    4 processors via shared memory.
 %LindaWorkers=compute-0-0
 %chk=Isomer_31.chk
 %NProc=4
 Will use up to    4 processors via shared memory.
 %mem=4GB
 SetLPE:  input flags=" -vv -opt "Tsnet.Node.lindarsharg: ssh" "
 SetLPE:    new flags=" -vv -opt "Tsnet.Node.lindarsharg: ssh"  -nodelist 'compute-0-0.local'"
 Will use up to    1 processors via Linda.
 ----------------------------------------------------------------------
 #p PBE1PBE/Def2TZVP scf=(maxcycle=768) opt=(cartesian,maxcycle=512) fr
 eq
 ----------------------------------------------------------------------
 1/6=512,10=7,14=-1,18=10,26=3,38=1/1,3;
 2/12=2,17=6,18=5,29=2,40=1/2;
 3/5=44,7=101,11=2,16=1,25=1,30=1,71=1,74=-13/1,2,3;
 4//1;
 5/5=2,7=768,38=5/2;
 6/7=2,8=2,9=2,10=2,28=1/1;
 7/7=1,29=1/1,2,3,16;
 1/6=512,10=7,14=-1,18=10,26=3/3(2);
 2/29=1/2;
 99/12=1/99;
 2/29=1/2;
 3/5=44,7=101,11=2,16=1,25=1,30=1,71=1,74=-13/1,2,3;
 4/5=5,16=3,69=1/1;
 5/5=2,7=768,38=5/2;
 7/7=1/1,2,3,16;
 1/6=512,14=-1,18=10,26=3/3(-5);
 2/29=1/2;
 6/7=2,8=2,9=2,10=2,19=2,28=1/1;
 99/9=1,12=1/99;
 Leave Link    1 at Thu Mar  8 05:41:28 2018, MaxMem=   536870912 cpu:         0.1
 (Enter /share/apps//mg09/l101.exe)
 ---------------------
 01Final_coords.xyz_31
 ---------------------
 Symbolic Z-matrix:
 Charge =  0 Multiplicity = 1
 50                    0.01161   2.69166   1.21831 
 83                    2.12368  -1.50285   0.04146 
 83                   -1.57514   1.29728  -0.99103 
 32                   -0.00789  -1.95015   1.96044 
 32                   -1.42349   0.36128   2.20397 
 50                   -0.00463  -1.22152  -2.1431 
 32                    1.42304   0.34812   2.20797 
 83                   -2.13616  -1.48655   0.0408 
 83                    1.58662   1.28485  -0.99095 
 
 NAtoms=      9 NQM=        9 NQMF=       0 NMMI=      0 NMMIF=      0
                NMic=       0 NMicF=      0.
                    Isotopes and Nuclear Properties:
 (Nuclear quadrupole moments (NQMom) in fm**2, nuclear magnetic moments (NMagM)
  in nuclear magnetons)

  Atom         1           2           3           4           5           6           7           8           9
 IAtWgt=         118         209         209          74          74         118          74         209         209
 AtmWgt= 117.9018000 208.9804000 208.9804000  73.9211788  73.9211788 117.9018000  73.9211788 208.9804000 208.9804000
 NucSpn=           0           9           9           0           0           0           0           9           9
 AtZEff=   0.0000000   0.0000000   0.0000000   0.0000000   0.0000000   0.0000000   0.0000000   0.0000000   0.0000000
 NQMom=    0.0000000 -51.6000000 -51.6000000   0.0000000   0.0000000   0.0000000   0.0000000 -51.6000000 -51.6000000
 NMagM=    0.0000000   4.1106000   4.1106000   0.0000000   0.0000000   0.0000000   0.0000000   4.1106000   4.1106000
 AtZNuc=  50.0000000  83.0000000  83.0000000  32.0000000  32.0000000  50.0000000  32.0000000  83.0000000  83.0000000
 Leave Link  101 at Thu Mar  8 05:41:28 2018, MaxMem=   536870912 cpu:         0.3
 (Enter /share/apps//mg09/l103.exe)

 GradGradGradGradGradGradGradGradGradGradGradGradGradGradGradGradGradGrad
 Berny optimization.
 Initialization pass.
 No Z-matrix variables, so optimization will use Cartesian coordinates.
 Trust Radius=3.00D-01 FncErr=1.00D-07 GrdErr=1.00D-06
 Number of steps in this run=    100 maximum allowed number of steps=    100.
 GradGradGradGradGradGradGradGradGradGradGradGradGradGradGradGradGradGrad

 Leave Link  103 at Thu Mar  8 05:41:29 2018, MaxMem=   536870912 cpu:         0.0
 (Enter /share/apps//mg09/l202.exe)
 ---------------------------------------------------------------------------------------------------
                            Z-MATRIX (ANGSTROMS AND DEGREES)
   CD    Cent   Atom    N1       Length/X        N2       Alpha/Y        N3        Beta/Z          J
 ---------------------------------------------------------------------------------------------------
      1      1  Sn       0   0.011614          2.691664          1.218312
      2      2  Bi       0   2.123681         -1.502848          0.041460
      3      3  Bi       0  -1.575138          1.297283         -0.991029
      4      4  Ge       0  -0.007887         -1.950152          1.960438
      5      5  Ge       0  -1.423486          0.361284          2.203969
      6      6  Sn       0  -0.004630         -1.221520         -2.143095
      7      7  Ge       0   1.423042          0.348116          2.207974
      8      8  Bi       0  -2.136159         -1.486554          0.040797
      9      9  Bi       0   1.586621          1.284851         -0.990952
 ---------------------------------------------------------------------------------------------------
                         Z-Matrix orientation:                         
 ---------------------------------------------------------------------
 Center     Atomic      Atomic             Coordinates (Angstroms)
 Number     Number       Type             X           Y           Z
 ---------------------------------------------------------------------
      1         50           0        0.011614    2.691664    1.218312
      2         83           0        2.123681   -1.502848    0.041460
      3         83           0       -1.575138    1.297283   -0.991029
      4         32           0       -0.007887   -1.950152    1.960438
      5         32           0       -1.423486    0.361284    2.203969
      6         50           0       -0.004630   -1.221520   -2.143095
      7         32           0        1.423042    0.348116    2.207974
      8         83           0       -2.136159   -1.486554    0.040797
      9         83           0        1.586621    1.284851   -0.990952
 ---------------------------------------------------------------------
                    Distance matrix (angstroms):
                    1          2          3          4          5
     1  Sn   0.000000
     2  Bi   4.841460   0.000000
     3  Bi   3.056676   4.752687   0.000000
     4  Ge   4.700807   2.902781   4.659750   0.000000
     5  Ge   2.908901   4.553441   3.332732   2.721390   0.000000
     6  Sn   5.158714   3.062864   3.184041   4.167721   4.838945
     7  Ge   2.909257   2.934407   4.485936   2.718615   2.846561
     8  Bi   4.843240   4.259871   3.021450   2.903358   2.932869
     9  Bi   3.056242   3.020856   3.161783   4.660301   4.485671
                    6          7          8          9
     6  Sn   0.000000
     7  Ge   4.840848   0.000000
     8  Bi   3.063175   4.553085   0.000000
     9  Bi   3.184558   3.337268   4.754396   0.000000
 Stoichiometry    Bi4Ge3Sn2
 Framework group  C1[X(Bi4Ge3Sn2)]
 Deg. of freedom    21
 Full point group                 C1      NOp   1
 Largest Abelian subgroup         C1      NOp   1
 Largest concise Abelian subgroup C1      NOp   1
                         Standard orientation:                         
 ---------------------------------------------------------------------
 Center     Atomic      Atomic             Coordinates (Angstroms)
 Number     Number       Type             X           Y           Z
 ---------------------------------------------------------------------
      1         50           0        0.011615    2.691664    1.218312
      2         83           0        2.123680   -1.502848    0.041460
      3         83           0       -1.575138    1.297284   -0.991029
      4         32           0       -0.007888   -1.950152    1.960438
      5         32           0       -1.423486    0.361285    2.203969
      6         50           0       -0.004630   -1.221520   -2.143095
      7         32           0        1.423042    0.348116    2.207974
      8         83           0       -2.136160   -1.486553    0.040797
      9         83           0        1.586621    1.284851   -0.990952
 ---------------------------------------------------------------------
 Rotational constants (GHZ):      0.0992762      0.0941250      0.0814891
 Leave Link  202 at Thu Mar  8 05:41:29 2018, MaxMem=   536870912 cpu:         0.0
 (Enter /share/apps//mg09/l301.exe)
 Standard basis: def2TZVP (5D, 7F)
 Ernie: Thresh=  0.10000D-02 Tol=  0.10000D-05 Strict=F.
 There are   519 symmetry adapted cartesian basis functions of A   symmetry.
 There are   444 symmetry adapted basis functions of A   symmetry.
   444 basis functions,   963 primitive gaussians,   519 cartesian basis functions
   116 alpha electrons      116 beta electrons
       nuclear repulsion energy      3582.6090612735 Hartrees.
 IExCor= 1009 DFT=T Ex+Corr=PBE1PBE ExCW=0 ScaHFX=  0.250000
 ScaDFX=  0.750000  0.750000  1.000000  1.000000 ScalE2=  1.000000  1.000000
 IRadAn=      0 IRanWt=     -1 IRanGd=            0 ICorTp=0 IEmpDi=  4
 NAtoms=    9 NActive=    9 NUniq=    9 SFac= 1.00D+00 NAtFMM=   60 NAOKFM=F Big=F
 Integral buffers will be    131072 words long.
 Raffenetti 2 integral format.
 Two-electron integral symmetry is turned on.
 Leave Link  301 at Thu Mar  8 05:41:29 2018, MaxMem=   536870912 cpu:         0.2
 (Enter /share/apps//mg09/l302.exe)
 NPDir=0 NMtPBC=     1 NCelOv=     1 NCel=       1 NClECP=     1 NCelD=      1
         NCelK=      1 NCelE2=     1 NClLst=     1 CellRange=     0.0.
 One-electron integrals computed using PRISM.
   1 Symmetry operations used in ECPInt.
 ECPInt:  NShTT=   10440 NPrTT=   41973 LenC2=    9692 LenP2D=   27469.
 LDataN:  DoStor=T MaxTD1= 8 Len=  415
 NBasis=   444 RedAO= T EigKep=  1.18D-03  NBF=   444
 NBsUse=   444 1.00D-06 EigRej= -1.00D+00 NBFU=   444
 Precomputing XC quadrature grid using
 IXCGrd= 4 IRadAn=           0 IRanWt=          -1 IRanGd=           0 AccXCQ= 0.00D+00.
 Defaulting to unpruned grid for atomic number  50.
 Defaulting to unpruned grid for atomic number  83.
 Defaulting to unpruned grid for atomic number  50.
 Generated NRdTot=       0 NPtTot=           0 NUsed=           0 NTot=          32
 NSgBfM=   498   498   498   498   498 MxSgAt=     9 MxSgA2=     9.
 Leave Link  302 at Thu Mar  8 05:41:38 2018, MaxMem=   536870912 cpu:        35.4
 (Enter /share/apps//mg09/l303.exe)
 DipDrv:  MaxL=1.
 Leave Link  303 at Thu Mar  8 05:41:38 2018, MaxMem=   536870912 cpu:         0.2
 (Enter /share/apps//mg09/l401.exe)
 ExpMin= 4.62D-02 ExpMax= 4.66D+05 ExpMxC= 4.50D+03 IAcc=2 IRadAn=         4 AccDes= 0.00D+00
 Harris functional with IExCor= 1009 and IRadAn=       4 diagonalized for initial guess.
 HarFok:  IExCor= 1009 AccDes= 0.00D+00 IRadAn=         4 IDoV= 1 UseB2=F ITyADJ=14
 ICtDFT=  3500011 ScaDFX=  1.000000  1.000000  1.000000  1.000000
 Defaulting to unpruned grid for atomic number  50.
 Defaulting to unpruned grid for atomic number  50.
 Defaulting to unpruned grid for atomic number  50.
 Defaulting to unpruned grid for atomic number  50.
 FoFCou: FMM=F IPFlag=           0 FMFlag=      100000 FMFlg1=           0
         NFxFlg=           0 DoJE=T BraDBF=F KetDBF=T FulRan=T
         wScrn=  0.000000 ICntrl=     500 IOpCl=  0 I1Cent=   200000004 NGrid=           0
         NMat0=    1 NMatS0=      1 NMatT0=    0 NMatD0=    1 NMtDS0=    0 NMtDT0=    0
 Petite list used in FoFCou.
 Harris En= -7518.61919090330    
 JPrj=0 DoOrth=F DoCkMO=F.
 Leave Link  401 at Thu Mar  8 05:41:41 2018, MaxMem=   536870912 cpu:        12.6
 (Enter /share/apps//mg09/l502.exe)
 Closed shell SCF:
 Using DIIS extrapolation, IDIIS=  1040.
 Integral symmetry usage will be decided dynamically.
 IVT=     1410107 IEndB=     1410107 NGot=   536870912 MDV=   536322046
 LenX=   536322046 LenY=   536052166
 Requested convergence on RMS density matrix=1.00D-08 within 768 cycles.
 Requested convergence on MAX density matrix=1.00D-06.
 Requested convergence on             energy=1.00D-06.
 No special actions if energy rises.
 Fock matrices will be formed incrementally for  20 cycles.

 Cycle   1  Pass 1  IDiag  1:
 FoFJK:  IHMeth= 1 ICntrl=       0 DoSepK=F KAlg= 0 I1Cent=   0 FoldK=F
 IRaf= 880000000 NMat=   1 IRICut=       1 DoRegI=T DoRafI=F ISym2E= 0.
 FoFCou: FMM=F IPFlag=           0 FMFlag=      100000 FMFlg1=           0
         NFxFlg=           0 DoJE=F BraDBF=F KetDBF=F FulRan=T
         wScrn=  0.000000 ICntrl=       0 IOpCl=  0 I1Cent=           0 NGrid=           0
         NMat0=    1 NMatS0=      1 NMatT0=    0 NMatD0=    1 NMtDS0=    0 NMtDT0=    0
 Symmetry not used in FoFCou.
 Defaulting to unpruned grid for atomic number  50.
 Defaulting to unpruned grid for atomic number  50.
 Defaulting to unpruned grid for atomic number  50.
 Defaulting to unpruned grid for atomic number  50.
 E= -7517.19994508734    
 DIIS: error= 3.49D-02 at cycle   1 NSaved=   1.
 NSaved= 1 IEnMin= 1 EnMin= -7517.19994508734     IErMin= 1 ErrMin= 3.49D-02
 ErrMax= 3.49D-02  0.00D+00 EMaxC= 1.00D-01 BMatC= 1.49D+00 BMatP= 1.49D+00
 IDIUse=3 WtCom= 6.51D-01 WtEn= 3.49D-01
 Coeff-Com:  0.100D+01
 Coeff-En:   0.100D+01
 Coeff:      0.100D+01
 Gap=     0.127 Goal=   None    Shift=    0.000
 GapD=    0.127 DampG=1.000 DampE=0.500 DampFc=0.5000 IDamp=-1.
 Damping current iteration by 5.00D-01
 RMSDP=6.04D-03 MaxDP=2.58D-01              OVMax= 9.69D-01

 Cycle   2  Pass 1  IDiag  1:
 RMSU=  3.01D-03    CP:  1.01D+00
 E= -7516.82706163522     Delta-E=        0.372883452123 Rises=F Damp=T
 DIIS: error= 2.04D-02 at cycle   2 NSaved=   2.
 NSaved= 2 IEnMin= 1 EnMin= -7517.19994508734     IErMin= 2 ErrMin= 2.04D-02
 ErrMax= 2.04D-02  0.00D+00 EMaxC= 1.00D-01 BMatC= 3.59D-01 BMatP= 1.49D+00
 IDIUse=3 WtCom= 7.96D-01 WtEn= 2.04D-01
 Coeff-Com:  0.191D+00 0.809D+00
 Coeff-En:   0.655D+00 0.345D+00
 Coeff:      0.286D+00 0.714D+00
 Gap=    -0.192 Goal=   None    Shift=    0.000
 RMSDP=4.06D-03 MaxDP=1.46D-01 DE= 3.73D-01 OVMax= 8.46D-01

 Cycle   3  Pass 1  IDiag  1:
 RMSU=  3.16D-03    CP:  1.00D+00  1.52D-01
 E= -7515.59119081664     Delta-E=        1.235870818580 Rises=F Damp=F
 DIIS: error= 4.92D-02 at cycle   3 NSaved=   3.
 NSaved= 3 IEnMin= 1 EnMin= -7517.19994508734     IErMin= 2 ErrMin= 2.04D-02
 ErrMax= 4.92D-02  0.00D+00 EMaxC= 1.00D-01 BMatC= 1.75D+00 BMatP= 3.59D-01
 IDIUse=2 WtCom= 0.00D+00 WtEn= 1.00D+00
 EnCoef did    12 forward-backward iterations
 Coeff-En:   0.561D+00 0.378D+00 0.613D-01
 Coeff:      0.561D+00 0.378D+00 0.613D-01
 Gap=     0.209 Goal=   None    Shift=    0.000
 RMSDP=3.47D-03 MaxDP=1.40D-01 DE= 1.24D+00 OVMax= 4.27D-01

 Cycle   4  Pass 1  IDiag  1:
 RMSU=  1.83D-03    CP:  1.01D+00  7.50D-01  2.62D-01
 E= -7517.66602880450     Delta-E=       -2.074837987862 Rises=F Damp=F
 DIIS: error= 1.34D-02 at cycle   4 NSaved=   4.
 NSaved= 4 IEnMin= 4 EnMin= -7517.66602880450     IErMin= 4 ErrMin= 1.34D-02
 ErrMax= 1.34D-02  0.00D+00 EMaxC= 1.00D-01 BMatC= 3.15D-01 BMatP= 3.59D-01
 IDIUse=3 WtCom= 8.66D-01 WtEn= 1.34D-01
 Coeff-Com:  0.344D+00-0.885D-01-0.431D-01 0.788D+00
 Coeff-En:   0.181D+00 0.000D+00 0.000D+00 0.819D+00
 Coeff:      0.322D+00-0.767D-01-0.373D-01 0.792D+00
 Gap=     0.109 Goal=   None    Shift=    0.000
 RMSDP=1.38D-03 MaxDP=6.51D-02 DE=-2.07D+00 OVMax= 1.10D-01

 Cycle   5  Pass 1  IDiag  1:
 RMSU=  7.43D-04    CP:  1.00D+00  5.18D-01  4.06D-02  6.74D-01
 E= -7517.75072731906     Delta-E=       -0.084698514560 Rises=F Damp=F
 DIIS: error= 6.38D-03 at cycle   5 NSaved=   5.
 NSaved= 5 IEnMin= 5 EnMin= -7517.75072731906     IErMin= 5 ErrMin= 6.38D-03
 ErrMax= 6.38D-03  0.00D+00 EMaxC= 1.00D-01 BMatC= 6.51D-02 BMatP= 3.15D-01
 IDIUse=3 WtCom= 9.36D-01 WtEn= 6.38D-02
 Coeff-Com:  0.178D+00-0.117D+00-0.147D-01 0.493D+00 0.460D+00
 Coeff-En:   0.000D+00 0.000D+00 0.000D+00 0.256D+00 0.744D+00
 Coeff:      0.167D+00-0.109D+00-0.138D-01 0.478D+00 0.478D+00
 Gap=     0.124 Goal=   None    Shift=    0.000
 RMSDP=8.82D-04 MaxDP=4.83D-02 DE=-8.47D-02 OVMax= 9.84D-02

 Cycle   6  Pass 1  IDiag  1:
 RMSU=  4.65D-04    CP:  1.00D+00  5.00D-01  1.41D-01  7.31D-01  1.10D-01
 E= -7517.79241597715     Delta-E=       -0.041688658092 Rises=F Damp=F
 DIIS: error= 3.73D-03 at cycle   6 NSaved=   6.
 NSaved= 6 IEnMin= 6 EnMin= -7517.79241597715     IErMin= 6 ErrMin= 3.73D-03
 ErrMax= 3.73D-03  0.00D+00 EMaxC= 1.00D-01 BMatC= 2.01D-02 BMatP= 6.51D-02
 IDIUse=3 WtCom= 9.63D-01 WtEn= 3.73D-02
 Coeff-Com:  0.563D-01-0.631D-01 0.826D-02 0.202D+00 0.369D+00 0.428D+00
 Coeff-En:   0.000D+00 0.000D+00 0.000D+00 0.000D+00 0.292D+00 0.708D+00
 Coeff:      0.542D-01-0.607D-01 0.796D-02 0.194D+00 0.366D+00 0.439D+00
 Gap=     0.119 Goal=   None    Shift=    0.000
 RMSDP=4.69D-04 MaxDP=1.96D-02 DE=-4.17D-02 OVMax= 5.41D-02

 Cycle   7  Pass 1  IDiag  1:
 RMSU=  2.50D-04    CP:  1.00D+00  4.94D-01  1.27D-01  7.12D-01  4.64D-01
                    CP:  3.75D-01
 E= -7517.80727282678     Delta-E=       -0.014856849622 Rises=F Damp=F
 DIIS: error= 2.78D-03 at cycle   7 NSaved=   7.
 NSaved= 7 IEnMin= 7 EnMin= -7517.80727282678     IErMin= 7 ErrMin= 2.78D-03
 ErrMax= 2.78D-03  0.00D+00 EMaxC= 1.00D-01 BMatC= 4.94D-03 BMatP= 2.01D-02
 IDIUse=3 WtCom= 9.72D-01 WtEn= 2.78D-02
 Coeff-Com:  0.267D-01-0.450D-01 0.674D-02 0.105D+00 0.229D+00 0.348D+00
 Coeff-Com:  0.329D+00
 Coeff-En:   0.000D+00 0.000D+00 0.000D+00 0.000D+00 0.000D+00 0.281D+00
 Coeff-En:   0.719D+00
 Coeff:      0.259D-01-0.437D-01 0.655D-02 0.102D+00 0.223D+00 0.346D+00
 Coeff:      0.340D+00
 Gap=     0.119 Goal=   None    Shift=    0.000
 RMSDP=2.14D-04 MaxDP=9.92D-03 DE=-1.49D-02 OVMax= 2.75D-02

 Cycle   8  Pass 1  IDiag  1:
 RMSU=  6.68D-05    CP:  1.00D+00  4.97D-01  1.24D-01  7.11D-01  4.08D-01
                    CP:  5.56D-01  2.81D-01
 E= -7517.81307340112     Delta-E=       -0.005800574341 Rises=F Damp=F
 DIIS: error= 8.74D-04 at cycle   8 NSaved=   8.
 NSaved= 8 IEnMin= 8 EnMin= -7517.81307340112     IErMin= 8 ErrMin= 8.74D-04
 ErrMax= 8.74D-04  0.00D+00 EMaxC= 1.00D-01 BMatC= 5.66D-04 BMatP= 4.94D-03
 IDIUse=3 WtCom= 9.91D-01 WtEn= 8.74D-03
 Coeff-Com:  0.982D-02-0.203D-01 0.507D-02 0.313D-01 0.646D-01 0.140D+00
 Coeff-Com:  0.244D+00 0.525D+00
 Coeff-En:   0.000D+00 0.000D+00 0.000D+00 0.000D+00 0.000D+00 0.000D+00
 Coeff-En:   0.105D+00 0.895D+00
 Coeff:      0.974D-02-0.202D-01 0.503D-02 0.311D-01 0.640D-01 0.139D+00
 Coeff:      0.243D+00 0.529D+00
 Gap=     0.119 Goal=   None    Shift=    0.000
 RMSDP=5.85D-05 MaxDP=3.08D-03 DE=-5.80D-03 OVMax= 7.87D-03

 Cycle   9  Pass 1  IDiag  1:
 RMSU=  2.57D-05    CP:  1.00D+00  4.96D-01  1.33D-01  7.12D-01  4.09D-01
                    CP:  5.23D-01  4.26D-01  7.07D-01
 E= -7517.81372358717     Delta-E=       -0.000650186052 Rises=F Damp=F
 DIIS: error= 1.43D-04 at cycle   9 NSaved=   9.
 NSaved= 9 IEnMin= 9 EnMin= -7517.81372358717     IErMin= 9 ErrMin= 1.43D-04
 ErrMax= 1.43D-04  0.00D+00 EMaxC= 1.00D-01 BMatC= 2.89D-05 BMatP= 5.66D-04
 IDIUse=3 WtCom= 9.99D-01 WtEn= 1.43D-03
 Coeff-Com:  0.209D-02-0.482D-02 0.566D-03-0.105D-02-0.164D-01-0.308D-02
 Coeff-Com:  0.291D-01 0.178D+00 0.816D+00
 Coeff-En:   0.000D+00 0.000D+00 0.000D+00 0.000D+00 0.000D+00 0.000D+00
 Coeff-En:   0.000D+00 0.000D+00 0.100D+01
 Coeff:      0.209D-02-0.481D-02 0.565D-03-0.105D-02-0.164D-01-0.308D-02
 Coeff:      0.290D-01 0.178D+00 0.816D+00
 Gap=     0.119 Goal=   None    Shift=    0.000
 RMSDP=1.97D-05 MaxDP=1.40D-03 DE=-6.50D-04 OVMax= 2.11D-03

 Cycle  10  Pass 1  IDiag  1:
 RMSU=  1.32D-05    CP:  1.00D+00  4.94D-01  1.34D-01  7.11D-01  4.00D-01
                    CP:  5.35D-01  4.36D-01  8.11D-01  8.21D-01
 E= -7517.81375219301     Delta-E=       -0.000028605844 Rises=F Damp=F
 DIIS: error= 6.82D-05 at cycle  10 NSaved=  10.
 NSaved=10 IEnMin=10 EnMin= -7517.81375219301     IErMin=10 ErrMin= 6.82D-05
 ErrMax= 6.82D-05  0.00D+00 EMaxC= 1.00D-01 BMatC= 7.98D-06 BMatP= 2.89D-05
 IDIUse=1 WtCom= 1.00D+00 WtEn= 0.00D+00
 Coeff-Com:  0.472D-03-0.116D-02 0.313D-03-0.350D-02-0.164D-01-0.166D-01
 Coeff-Com: -0.909D-02 0.548D-01 0.513D+00 0.478D+00
 Coeff:      0.472D-03-0.116D-02 0.313D-03-0.350D-02-0.164D-01-0.166D-01
 Coeff:     -0.909D-02 0.548D-01 0.513D+00 0.478D+00
 Gap=     0.119 Goal=   None    Shift=    0.000
 RMSDP=7.61D-06 MaxDP=6.43D-04 DE=-2.86D-05 OVMax= 7.81D-04

 Cycle  11  Pass 1  IDiag  1:
 RMSU=  3.17D-06    CP:  1.00D+00  4.93D-01  1.34D-01  7.10D-01  4.00D-01
                    CP:  5.35D-01  4.33D-01  8.04D-01  9.43D-01  5.73D-01
 E= -7517.81376116674     Delta-E=       -0.000008973724 Rises=F Damp=F
 DIIS: error= 1.62D-05 at cycle  11 NSaved=  11.
 NSaved=11 IEnMin=11 EnMin= -7517.81376116674     IErMin=11 ErrMin= 1.62D-05
 ErrMax= 1.62D-05  0.00D+00 EMaxC= 1.00D-01 BMatC= 3.15D-07 BMatP= 7.98D-06
 IDIUse=1 WtCom= 1.00D+00 WtEn= 0.00D+00
 Coeff-Com:  0.939D-04-0.179D-03 0.125D-03-0.116D-02-0.514D-02-0.753D-02
 Coeff-Com: -0.745D-02 0.214D-02 0.126D+00 0.188D+00 0.705D+00
 Coeff:      0.939D-04-0.179D-03 0.125D-03-0.116D-02-0.514D-02-0.753D-02
 Coeff:     -0.745D-02 0.214D-02 0.126D+00 0.188D+00 0.705D+00
 Gap=     0.119 Goal=   None    Shift=    0.000
 RMSDP=1.99D-06 MaxDP=1.22D-04 DE=-8.97D-06 OVMax= 2.49D-04

 Cycle  12  Pass 1  IDiag  1:
 RMSU=  1.51D-06    CP:  1.00D+00  4.93D-01  1.35D-01  7.10D-01  4.00D-01
                    CP:  5.34D-01  4.33D-01  8.07D-01  9.66D-01  5.83D-01
                    CP:  8.26D-01
 E= -7517.81376143434     Delta-E=       -0.000000267602 Rises=F Damp=F
 DIIS: error= 1.07D-05 at cycle  12 NSaved=  12.
 NSaved=12 IEnMin=12 EnMin= -7517.81376143434     IErMin=12 ErrMin= 1.07D-05
 ErrMax= 1.07D-05  0.00D+00 EMaxC= 1.00D-01 BMatC= 9.90D-08 BMatP= 3.15D-07
 IDIUse=1 WtCom= 1.00D+00 WtEn= 0.00D+00
 Coeff-Com:  0.597D-04-0.980D-04 0.454D-04-0.432D-03-0.215D-02-0.368D-02
 Coeff-Com: -0.425D-02-0.265D-02 0.432D-01 0.904D-01 0.478D+00 0.402D+00
 Coeff:      0.597D-04-0.980D-04 0.454D-04-0.432D-03-0.215D-02-0.368D-02
 Coeff:     -0.425D-02-0.265D-02 0.432D-01 0.904D-01 0.478D+00 0.402D+00
 Gap=     0.119 Goal=   None    Shift=    0.000
 RMSDP=1.30D-06 MaxDP=5.50D-05 DE=-2.68D-07 OVMax= 1.66D-04

 Cycle  13  Pass 1  IDiag  1:
 RMSU=  8.36D-07    CP:  1.00D+00  4.93D-01  1.35D-01  7.10D-01  4.00D-01
                    CP:  5.34D-01  4.33D-01  8.09D-01  9.65D-01  5.96D-01
                    CP:  9.05D-01  3.76D-01
 E= -7517.81376151294     Delta-E=       -0.000000078602 Rises=F Damp=F
 DIIS: error= 7.43D-06 at cycle  13 NSaved=  13.
 NSaved=13 IEnMin=13 EnMin= -7517.81376151294     IErMin=13 ErrMin= 7.43D-06
 ErrMax= 7.43D-06  0.00D+00 EMaxC= 1.00D-01 BMatC= 3.89D-08 BMatP= 9.90D-08
 IDIUse=1 WtCom= 1.00D+00 WtEn= 0.00D+00
 Coeff-Com:  0.322D-04-0.461D-04 0.101D-06-0.159D-04-0.343D-03-0.941D-03
 Coeff-Com: -0.148D-02-0.291D-02-0.908D-03 0.233D-01 0.204D+00 0.358D+00
 Coeff-Com:  0.422D+00
 Coeff:      0.322D-04-0.461D-04 0.101D-06-0.159D-04-0.343D-03-0.941D-03
 Coeff:     -0.148D-02-0.291D-02-0.908D-03 0.233D-01 0.204D+00 0.358D+00
 Coeff:      0.422D+00
 Gap=     0.119 Goal=   None    Shift=    0.000
 RMSDP=6.27D-07 MaxDP=2.75D-05 DE=-7.86D-08 OVMax= 7.93D-05

 Cycle  14  Pass 1  IDiag  1:
 RMSU=  2.74D-07    CP:  1.00D+00  4.93D-01  1.35D-01  7.10D-01  4.00D-01
                    CP:  5.34D-01  4.33D-01  8.09D-01  9.64D-01  6.06D-01
                    CP:  9.03D-01  5.86D-01  4.83D-01
 E= -7517.81376156426     Delta-E=       -0.000000051323 Rises=F Damp=F
 DIIS: error= 1.01D-06 at cycle  14 NSaved=  14.
 NSaved=14 IEnMin=14 EnMin= -7517.81376156426     IErMin=14 ErrMin= 1.01D-06
 ErrMax= 1.01D-06  0.00D+00 EMaxC= 1.00D-01 BMatC= 2.39D-09 BMatP= 3.89D-08
 IDIUse=1 WtCom= 1.00D+00 WtEn= 0.00D+00
 Coeff-Com:  0.246D-05 0.709D-05-0.150D-05 0.400D-04 0.114D-03-0.268D-04
 Coeff-Com: -0.257D-03-0.162D-02-0.816D-02-0.110D-02 0.495D-01 0.155D+00
 Coeff-Com:  0.258D+00 0.549D+00
 Coeff:      0.246D-05 0.709D-05-0.150D-05 0.400D-04 0.114D-03-0.268D-04
 Coeff:     -0.257D-03-0.162D-02-0.816D-02-0.110D-02 0.495D-01 0.155D+00
 Coeff:      0.258D+00 0.549D+00
 Gap=     0.119 Goal=   None    Shift=    0.000
 RMSDP=1.51D-07 MaxDP=9.45D-06 DE=-5.13D-08 OVMax= 1.90D-05

 Cycle  15  Pass 1  IDiag  1:
 RMSU=  7.36D-08    CP:  1.00D+00  4.93D-01  1.35D-01  7.10D-01  4.00D-01
                    CP:  5.34D-01  4.33D-01  8.09D-01  9.64D-01  6.05D-01
                    CP:  9.16D-01  5.97D-01  5.80D-01  7.43D-01
 E= -7517.81376156714     Delta-E=       -0.000000002876 Rises=F Damp=F
 DIIS: error= 4.00D-07 at cycle  15 NSaved=  15.
 NSaved=15 IEnMin=15 EnMin= -7517.81376156714     IErMin=15 ErrMin= 4.00D-07
 ErrMax= 4.00D-07  0.00D+00 EMaxC= 1.00D-01 BMatC= 2.17D-10 BMatP= 2.39D-09
 IDIUse=1 WtCom= 1.00D+00 WtEn= 0.00D+00
 Coeff-Com: -0.112D-05 0.603D-05-0.154D-05 0.257D-04 0.101D-03 0.119D-03
 Coeff-Com:  0.104D-03-0.433D-03-0.348D-02-0.330D-02 0.320D-02 0.431D-01
 Coeff-Com:  0.896D-01 0.273D+00 0.598D+00
 Coeff:     -0.112D-05 0.603D-05-0.154D-05 0.257D-04 0.101D-03 0.119D-03
 Coeff:      0.104D-03-0.433D-03-0.348D-02-0.330D-02 0.320D-02 0.431D-01
 Coeff:      0.896D-01 0.273D+00 0.598D+00
 Gap=     0.119 Goal=   None    Shift=    0.000
 RMSDP=4.20D-08 MaxDP=2.76D-06 DE=-2.88D-09 OVMax= 4.40D-06

 Cycle  16  Pass 1  IDiag  1:
 RMSU=  2.45D-08    CP:  1.00D+00  4.93D-01  1.35D-01  7.10D-01  4.00D-01
                    CP:  5.34D-01  4.33D-01  8.09D-01  9.65D-01  6.05D-01
                    CP:  9.19D-01  6.02D-01  5.84D-01  7.86D-01  8.61D-01
 E= -7517.81376156712     Delta-E=        0.000000000022 Rises=F Damp=F
 DIIS: error= 1.42D-07 at cycle  16 NSaved=  16.
 NSaved=16 IEnMin=15 EnMin= -7517.81376156714     IErMin=16 ErrMin= 1.42D-07
 ErrMax= 1.42D-07  0.00D+00 EMaxC= 1.00D-01 BMatC= 1.83D-11 BMatP= 2.17D-10
 IDIUse=1 WtCom= 1.00D+00 WtEn= 0.00D+00
 Coeff-Com: -0.800D-06 0.155D-05-0.500D-06 0.685D-05 0.308D-04 0.588D-04
 Coeff-Com:  0.688D-04 0.179D-04-0.296D-03-0.101D-02-0.301D-02 0.107D-02
 Coeff-Com:  0.723D-02 0.420D-01 0.214D+00 0.739D+00
 Coeff:     -0.800D-06 0.155D-05-0.500D-06 0.685D-05 0.308D-04 0.588D-04
 Coeff:      0.688D-04 0.179D-04-0.296D-03-0.101D-02-0.301D-02 0.107D-02
 Coeff:      0.723D-02 0.420D-01 0.214D+00 0.739D+00
 Gap=     0.119 Goal=   None    Shift=    0.000
 RMSDP=1.93D-08 MaxDP=9.49D-07 DE= 2.18D-11 OVMax= 2.29D-06

 Cycle  17  Pass 1  IDiag  1:
 RMSU=  9.56D-09    CP:  1.00D+00  4.93D-01  1.35D-01  7.10D-01  4.00D-01
                    CP:  5.34D-01  4.33D-01  8.09D-01  9.65D-01  6.05D-01
                    CP:  9.20D-01  6.05D-01  5.90D-01  7.99D-01  9.20D-01
                    CP:  8.98D-01
 E= -7517.81376156684     Delta-E=        0.000000000276 Rises=F Damp=F
 DIIS: error= 5.97D-08 at cycle  17 NSaved=  17.
 NSaved=17 IEnMin=15 EnMin= -7517.81376156714     IErMin=17 ErrMin= 5.97D-08
 ErrMax= 5.97D-08  0.00D+00 EMaxC= 1.00D-01 BMatC= 2.28D-12 BMatP= 1.83D-11
 IDIUse=1 WtCom= 1.00D+00 WtEn= 0.00D+00
 Coeff-Com: -0.625D-06 0.981D-06-0.799D-07-0.306D-06 0.328D-05 0.164D-04
 Coeff-Com:  0.267D-04 0.719D-04 0.227D-03-0.236D-03-0.262D-02-0.411D-02
 Coeff-Com: -0.455D-02-0.491D-03 0.476D-01 0.369D+00 0.595D+00
 Coeff:     -0.625D-06 0.981D-06-0.799D-07-0.306D-06 0.328D-05 0.164D-04
 Coeff:      0.267D-04 0.719D-04 0.227D-03-0.236D-03-0.262D-02-0.411D-02
 Coeff:     -0.455D-02-0.491D-03 0.476D-01 0.369D+00 0.595D+00
 Gap=     0.119 Goal=   None    Shift=    0.000
 RMSDP=6.58D-09 MaxDP=3.10D-07 DE= 2.76D-10 OVMax= 8.48D-07

 SCF Done:  E(RPBE1PBE) =  -7517.81376157     A.U. after   17 cycles
            NFock= 17  Conv=0.66D-08     -V/T= 2.1285
 KE= 6.661942729204D+03 PE=-2.475659192374D+04 EE= 6.994226371696D+03
 Leave Link  502 at Thu Mar  8 05:57:54 2018, MaxMem=   536870912 cpu:      3726.0
 (Enter /share/apps//mg09/l601.exe)
 Copying SCF densities to generalized density rwf, IOpCl= 0 IROHF=0.

 **********************************************************************

            Population analysis using the SCF density.

 **********************************************************************

 Orbital symmetries:
       Occupied  (A) (A) (A) (A) (A) (A) (A) (A) (A) (A) (A) (A)
                 (A) (A) (A) (A) (A) (A) (A) (A) (A) (A) (A) (A)
                 (A) (A) (A) (A) (A) (A) (A) (A) (A) (A) (A) (A)
                 (A) (A) (A) (A) (A) (A) (A) (A) (A) (A) (A) (A)
                 (A) (A) (A) (A) (A) (A) (A) (A) (A) (A) (A) (A)
                 (A) (A) (A) (A) (A) (A) (A) (A) (A) (A) (A) (A)
                 (A) (A) (A) (A) (A) (A) (A) (A) (A) (A) (A) (A)
                 (A) (A) (A) (A) (A) (A) (A) (A) (A) (A) (A) (A)
                 (A) (A) (A) (A) (A) (A) (A) (A) (A) (A) (A) (A)
                 (A) (A) (A) (A) (A) (A) (A) (A)
       Virtual   (A) (A) (A) (A) (A) (A) (A) (A) (A) (A) (A) (A)
                 (A) (A) (A) (A) (A) (A) (A) (A) (A) (A) (A) (A)
                 (A) (A) (A) (A) (A) (A) (A) (A) (A) (A) (A) (A)
                 (A) (A) (A) (A) (A) (A) (A) (A) (A) (A) (A) (A)
                 (A) (A) (A) (A) (A) (A) (A) (A) (A) (A) (A) (A)
                 (A) (A) (A) (A) (A) (A) (A) (A) (A) (A) (A) (A)
                 (A) (A) (A) (A) (A) (A) (A) (A) (A) (A) (A) (A)
                 (A) (A) (A) (A) (A) (A) (A) (A) (A) (A) (A) (A)
                 (A) (A) (A) (A) (A) (A) (A) (A) (A) (A) (A) (A)
                 (A) (A) (A) (A) (A) (A) (A) (A) (A) (A) (A) (A)
                 (A) (A) (A) (A) (A) (A) (A) (A) (A) (A) (A) (A)
                 (A) (A) (A) (A) (A) (A) (A) (A) (A) (A) (A) (A)
                 (A) (A) (A) (A) (A) (A) (A) (A) (A) (A) (A) (A)
                 (A) (A) (A) (A) (A) (A) (A) (A) (A) (A) (A) (A)
                 (A) (A) (A) (A) (A) (A) (A) (A) (A) (A) (A) (A)
                 (A) (A) (A) (A) (A) (A) (A) (A) (A) (A) (A) (A)
                 (A) (A) (A) (A) (A) (A) (A) (A) (A) (A) (A) (A)
                 (A) (A) (A) (A) (A) (A) (A) (A) (A) (A) (A) (A)
                 (A) (A) (A) (A) (A) (A) (A) (A) (A) (A) (A) (A)
                 (A) (A) (A) (A) (A) (A) (A) (A) (A) (A) (A) (A)
                 (A) (A) (A) (A) (A) (A) (A) (A) (A) (A) (A) (A)
                 (A) (A) (A) (A) (A) (A) (A) (A) (A) (A) (A) (A)
                 (A) (A) (A) (A) (A) (A) (A) (A) (A) (A) (A) (A)
                 (A) (A) (A) (A) (A) (A) (A) (A) (A) (A) (A) (A)
                 (A) (A) (A) (A) (A) (A) (A) (A) (A) (A) (A) (A)
                 (A) (A) (A) (A) (A) (A) (A) (A) (A) (A) (A) (A)
                 (A) (A) (A) (A) (A) (A) (A) (A) (A) (A) (A) (A)
                 (A) (A) (A) (A)
 The electronic state is 1-A.
 Alpha  occ. eigenvalues -- -399.09601-399.09599-399.09008 -49.91159 -49.91157
 Alpha  occ. eigenvalues --  -49.90600 -44.39268 -44.39266 -44.39203 -44.39200
 Alpha  occ. eigenvalues --  -44.39177 -44.39174 -44.38680 -44.38659 -44.38623
 Alpha  occ. eigenvalues --   -6.27664  -6.27662  -6.27117  -6.02577  -6.02572
 Alpha  occ. eigenvalues --   -6.01086  -6.01079  -5.13875  -5.13385  -4.43189
 Alpha  occ. eigenvalues --   -4.43188  -4.42991  -4.42988  -4.42879  -4.42876
 Alpha  occ. eigenvalues --   -4.42573  -4.42485  -4.42372  -3.74844  -3.74835
 Alpha  occ. eigenvalues --   -3.74734  -3.74729  -3.74566  -3.74560  -3.73409
 Alpha  occ. eigenvalues --   -3.73400  -3.73256  -3.73248  -3.73001  -3.72994
 Alpha  occ. eigenvalues --   -3.47128  -3.47017  -3.46819  -3.46608  -3.46575
 Alpha  occ. eigenvalues --   -3.46319  -1.22647  -1.22620  -1.22601  -1.22576
 Alpha  occ. eigenvalues --   -1.22559  -1.22415  -1.22410  -1.22379  -1.22339
 Alpha  occ. eigenvalues --   -1.22227  -1.22029  -1.22002  -1.21856  -1.21814
 Alpha  occ. eigenvalues --   -1.21793  -1.08916  -1.08641  -1.08559  -1.08455
 Alpha  occ. eigenvalues --   -1.08360  -1.08356  -1.08245  -1.08224  -1.08119
 Alpha  occ. eigenvalues --   -1.08007  -1.07036  -1.07028  -1.06969  -1.06942
 Alpha  occ. eigenvalues --   -1.06834  -1.06827  -1.06658  -1.06637  -1.06614
 Alpha  occ. eigenvalues --   -1.06563  -1.03317  -1.03316  -1.03105  -1.03036
 Alpha  occ. eigenvalues --   -1.02976  -1.02854  -1.02839  -1.02639  -1.02629
 Alpha  occ. eigenvalues --   -1.02534  -0.66708  -0.62087  -0.59823  -0.54826
 Alpha  occ. eigenvalues --   -0.54254  -0.45258  -0.43547  -0.43530  -0.40116
 Alpha  occ. eigenvalues --   -0.29033  -0.27421  -0.26984  -0.25317  -0.25212
 Alpha  occ. eigenvalues --   -0.24589  -0.23561  -0.22520  -0.21680  -0.21060
 Alpha  occ. eigenvalues --   -0.19808
 Alpha virt. eigenvalues --   -0.07931  -0.07573  -0.06704  -0.06519  -0.06301
 Alpha virt. eigenvalues --   -0.06244  -0.05540  -0.05169  -0.04367  -0.02930
 Alpha virt. eigenvalues --   -0.02608  -0.02102  -0.01186   0.04216   0.05179
 Alpha virt. eigenvalues --    0.05221   0.06318   0.07777   0.08627   0.08914
 Alpha virt. eigenvalues --    0.09381   0.09543   0.10165   0.10698   0.10756
 Alpha virt. eigenvalues --    0.10872   0.11596   0.12242   0.12432   0.12728
 Alpha virt. eigenvalues --    0.13633   0.15648   0.15970   0.16495   0.17184
 Alpha virt. eigenvalues --    0.17880   0.18020   0.19538   0.19747   0.20774
 Alpha virt. eigenvalues --    0.21108   0.22146   0.22676   0.23052   0.23713
 Alpha virt. eigenvalues --    0.24602   0.25728   0.26378   0.26786   0.28055
 Alpha virt. eigenvalues --    0.28083   0.29262   0.29940   0.30864   0.30902
 Alpha virt. eigenvalues --    0.32622   0.32982   0.33614   0.33841   0.34448
 Alpha virt. eigenvalues --    0.34915   0.35032   0.36184   0.38082   0.38198
 Alpha virt. eigenvalues --    0.38711   0.39504   0.39865   0.41210   0.41721
 Alpha virt. eigenvalues --    0.42235   0.42391   0.43437   0.44051   0.44556
 Alpha virt. eigenvalues --    0.44958   0.46820   0.46934   0.48059   0.48671
 Alpha virt. eigenvalues --    0.49208   0.49419   0.49744   0.51067   0.51475
 Alpha virt. eigenvalues --    0.52563   0.52878   0.54868   0.55524   0.56105
 Alpha virt. eigenvalues --    0.56741   0.57477   0.58123   0.58758   0.59371
 Alpha virt. eigenvalues --    0.59802   0.60267   0.61695   0.61742   0.62685
 Alpha virt. eigenvalues --    0.63479   0.63692   0.64759   0.65406   0.66606
 Alpha virt. eigenvalues --    0.67524   0.67709   0.68814   0.69351   0.69682
 Alpha virt. eigenvalues --    0.71023   0.71246   0.72435   0.73172   0.74796
 Alpha virt. eigenvalues --    0.75772   0.76388   0.76969   0.77202   0.78417
 Alpha virt. eigenvalues --    0.78636   0.79235   0.81771   0.81975   0.82308
 Alpha virt. eigenvalues --    0.82969   0.83956   0.84338   0.85137   0.85280
 Alpha virt. eigenvalues --    0.85733   0.87424   0.87889   0.88143   0.88949
 Alpha virt. eigenvalues --    0.89171   0.91110   0.91131   0.91177   0.91245
 Alpha virt. eigenvalues --    0.92955   0.93876   0.95109   0.95826   0.97127
 Alpha virt. eigenvalues --    0.97523   0.98573   1.00370   1.00953   1.01019
 Alpha virt. eigenvalues --    1.02932   1.03231   1.04908   1.05377   1.07139
 Alpha virt. eigenvalues --    1.08616   1.09700   1.10556   1.11588   1.12198
 Alpha virt. eigenvalues --    1.15107   1.15760   1.16176   1.17955   1.18059
 Alpha virt. eigenvalues --    1.18094   1.18857   1.19709   1.20181   1.20378
 Alpha virt. eigenvalues --    1.20479   1.21695   1.22163   1.22500   1.23013
 Alpha virt. eigenvalues --    1.23316   1.23434   1.24002   1.24510   1.24986
 Alpha virt. eigenvalues --    1.25589   1.26257   1.26675   1.26940   1.27632
 Alpha virt. eigenvalues --    1.28319   1.28909   1.29380   1.29652   1.30366
 Alpha virt. eigenvalues --    1.30517   1.30867   1.32685   1.32797   1.34141
 Alpha virt. eigenvalues --    1.34571   1.35367   1.37465   1.37985   1.38506
 Alpha virt. eigenvalues --    1.39045   1.40764   1.41475   1.42990   1.43738
 Alpha virt. eigenvalues --    1.44721   1.45025   1.47137   1.48222   1.49607
 Alpha virt. eigenvalues --    1.49905   1.50451   1.52305   1.52570   1.54349
 Alpha virt. eigenvalues --    1.56639   1.56973   1.57376   1.58708   1.60277
 Alpha virt. eigenvalues --    1.62972   1.66656   1.69013   2.02785   2.05453
 Alpha virt. eigenvalues --    2.07069   2.07715   2.12099   2.12564   2.16247
 Alpha virt. eigenvalues --    2.16519   2.18628   2.19609   2.20291   2.20600
 Alpha virt. eigenvalues --    2.23038   2.23767   2.24056   2.24482   2.24790
 Alpha virt. eigenvalues --    2.27226   2.27554   2.30288   2.31184   2.32122
 Alpha virt. eigenvalues --    2.33111   2.33912   2.35469   2.37878   2.38458
 Alpha virt. eigenvalues --    2.39158   2.41826   2.42613   2.43317   2.45969
 Alpha virt. eigenvalues --    2.49490   2.50150   2.53499   2.54735   2.55499
 Alpha virt. eigenvalues --    2.58425   2.60613   2.61638   2.64996   2.65850
 Alpha virt. eigenvalues --    2.68330   2.68356   2.71983   2.72059   2.74000
 Alpha virt. eigenvalues --    2.76240   2.77080   2.80434   2.81438   2.86219
 Alpha virt. eigenvalues --    2.86431   2.88185   2.89072   2.90332   3.03185
 Alpha virt. eigenvalues --    3.20137   3.23130   3.34660   3.35770   3.36460
 Alpha virt. eigenvalues --    3.44684   3.92842   3.98676   3.99278   4.01042
 Alpha virt. eigenvalues --    4.02450   4.06906   4.08689   4.16256   4.20580
 Alpha virt. eigenvalues --    5.19751   5.34413   5.42148  35.39064  35.40419
 Alpha virt. eigenvalues --   35.42564  35.43482  35.44652  35.46741  35.48478
 Alpha virt. eigenvalues --   35.51283  35.53699  35.57238  35.57695  35.63813
 Alpha virt. eigenvalues --   35.89797  35.95873  35.96647  36.10184  36.18335
 Alpha virt. eigenvalues --   36.20183  36.90762  36.94489  36.98173  37.00197
 Alpha virt. eigenvalues --   37.08833  37.14139 113.56987 113.58095 120.22406
 Alpha virt. eigenvalues --  120.23792 120.24367 120.26066
          Condensed to atoms (all electrons):
               1          2          3          4          5          6
     1  Sn  21.435849  -0.018603   0.158629  -0.020009   0.164723  -0.013193
     2  Bi  -0.018603  22.384731  -0.026103   0.186048  -0.025214   0.175127
     3  Bi   0.158629  -0.026103  22.328133  -0.019645   0.053554   0.122081
     4  Ge  -0.020009   0.186048  -0.019645  31.506587   0.143991  -0.009625
     5  Ge   0.164723  -0.025214   0.053554   0.143991  31.506727  -0.016051
     6  Sn  -0.013193   0.175127   0.122081  -0.009625  -0.016051  21.461335
     7  Ge   0.164925   0.142220  -0.027218   0.144817   0.113495  -0.016026
     8  Bi  -0.018625  -0.025260   0.183041   0.185907   0.142362   0.175115
     9  Bi   0.158867   0.183172   0.139142  -0.019663  -0.027254   0.122188
               7          8          9
     1  Sn   0.164925  -0.018625   0.158867
     2  Bi   0.142220  -0.025260   0.183172
     3  Bi  -0.027218   0.183041   0.139142
     4  Ge   0.144817   0.185907  -0.019663
     5  Ge   0.113495   0.142362  -0.027254
     6  Sn  -0.016026   0.175115   0.122188
     7  Ge  31.506387  -0.025277   0.052992
     8  Bi  -0.025277  22.384720  -0.026062
     9  Bi   0.052992  -0.026062  22.328390
 Mulliken charges:
               1
     1  Sn  -0.012563
     2  Bi   0.023882
     3  Bi   0.088386
     4  Ge  -0.098409
     5  Ge  -0.056334
     6  Sn  -0.000952
     7  Ge  -0.056316
     8  Bi   0.024078
     9  Bi   0.088229
 Sum of Mulliken charges =   0.00000
 Mulliken charges with hydrogens summed into heavy atoms:
               1
     1  Sn  -0.012563
     2  Bi   0.023882
     3  Bi   0.088386
     4  Ge  -0.098409
     5  Ge  -0.056334
     6  Sn  -0.000952
     7  Ge  -0.056316
     8  Bi   0.024078
     9  Bi   0.088229
 Electronic spatial extent (au):  <R**2>=           6086.3999
 Charge=              0.0000 electrons
 Dipole moment (field-independent basis, Debye):
    X=              0.0003    Y=              0.5445    Z=             -1.9559  Tot=              2.0302
 Quadrupole moment (field-independent basis, Debye-Ang):
   XX=           -217.1041   YY=           -214.6321   ZZ=           -222.7854
   XY=              0.0235   XZ=              0.0101   YZ=              1.1644
 Traceless Quadrupole moment (field-independent basis, Debye-Ang):
   XX=              1.0698   YY=              3.5417   ZZ=             -4.6115
   XY=              0.0235   XZ=              0.0101   YZ=              1.1644
 Octapole moment (field-independent basis, Debye-Ang**2):
  XXX=              0.0012  YYY=            -11.1034  ZZZ=           -102.3109  XYY=              0.0026
  XXY=             -4.3581  XXZ=            -44.2230  XZZ=              0.0028  YZZ=              2.4605
  YYZ=            -40.7117  XYZ=              0.0269
 Hexadecapole moment (field-independent basis, Debye-Ang**3):
 XXXX=          -3257.7526 YYYY=          -3416.3104 ZZZZ=          -3081.1455 XXXY=             -0.0298
 XXXZ=             -0.4518 YYYX=             -0.9865 YYYZ=            -69.3018 ZZZX=             -0.1644
 ZZZY=            -58.2757 XXYY=          -1070.5459 XXZZ=          -1057.6863 YYZZ=          -1065.9437
 XXYZ=            -39.0764 YYXZ=              0.0915 ZZXY=             -0.1406
 N-N= 3.582609061273D+03 E-N=-2.475659191033D+04  KE= 6.661942729204D+03
 No NMR shielding tensors so no spin-rotation constants.
 Leave Link  601 at Thu Mar  8 05:57:55 2018, MaxMem=   536870912 cpu:         1.5
 (Enter /share/apps//mg09/l701.exe)
 Compute integral first derivatives.
 ... and contract with generalized density number  0.
   1 Symmetry operations used in ECPInt.
 ECPInt:  NShTT=   10440 NPrTT=   41973 LenC2=    9692 LenP2D=   27469.
 LDataN:  DoStor=T MaxTD1= 9 Len=  602
 Leave Link  701 at Thu Mar  8 05:58:19 2018, MaxMem=   536870912 cpu:        92.4
 (Enter /share/apps//mg09/l702.exe)
 L702 exits ... SP integral derivatives will be done elsewhere.
 Leave Link  702 at Thu Mar  8 05:58:19 2018, MaxMem=   536870912 cpu:         0.1
 (Enter /share/apps//mg09/l703.exe)
 Compute integral first derivatives, UseDBF=F ICtDFT=           0.
 Integral derivatives from FoFJK, PRISM(SPDF).
 Calling FoFJK, ICntrl=      2127 FMM=F ISym2X=0 I1Cent= 0 IOpClX= 0 NMat=1 NMatS=1 NMatT=0.
 FoFJK:  IHMeth= 1 ICntrl=    2127 DoSepK=F KAlg= 0 I1Cent=   0 FoldK=F
 IRaf=         0 NMat=   1 IRICut=       1 DoRegI=T DoRafI=F ISym2E= 0.
 FoFCou: FMM=F IPFlag=           0 FMFlag=      100000 FMFlg1=         800
         NFxFlg=           0 DoJE=F BraDBF=F KetDBF=F FulRan=T
         wScrn=  0.000000 ICntrl=    2127 IOpCl=  0 I1Cent=           0 NGrid=           0
         NMat0=    1 NMatS0=      1 NMatT0=    0 NMatD0=    1 NMtDS0=    0 NMtDT0=    0
 Symmetry not used in FoFCou.
 Defaulting to unpruned grid for atomic number  50.
 Defaulting to unpruned grid for atomic number  50.
 Defaulting to unpruned grid for atomic number  50.
 Defaulting to unpruned grid for atomic number  50.
 Leave Link  703 at Thu Mar  8 06:01:54 2018, MaxMem=   536870912 cpu:       845.3
 (Enter /share/apps//mg09/l716.exe)
 Dipole        = 1.09649819D-04 2.14205445D-01-7.69499016D-01
 ***** Axes restored to original set *****
 -------------------------------------------------------------------
 Center     Atomic                   Forces (Hartrees/Bohr)
 Number     Number              X              Y              Z
 -------------------------------------------------------------------
      1       50          -0.000055743   -0.013196531   -0.001288040
      2       83          -0.007551767    0.004496544    0.002663476
      3       83           0.005162129   -0.003993540    0.004580935
      4       32           0.000016680    0.016343953   -0.005172290
      5       32           0.014128844   -0.004533922   -0.008197769
      6       50           0.000042860    0.004780873    0.008593473
      7       32          -0.014131101   -0.004391531   -0.008318380
      8       83           0.007637232    0.004469254    0.002601116
      9       83          -0.005249134   -0.003975099    0.004537479
 -------------------------------------------------------------------
 Cartesian Forces:  Max     0.016343953 RMS     0.007300131
 Force constants in Cartesian coordinates: 
                1             2             3             4             5 
      1  0.108918D+00
      2  0.344577D-03  0.179604D+00
      3  0.773766D-04  0.207328D-01  0.123783D+00
      4  0.184814D-02  0.595213D-02  0.177228D-02  0.153501D+00
      5  0.999606D-03 -0.291003D-02 -0.377334D-02 -0.362627D-01  0.141252D+00
      6  0.171993D-03 -0.332244D-02  0.896814D-02 -0.179959D-01  0.656073D-02
      7 -0.320003D-01  0.884078D-02 -0.148818D-01 -0.170104D-02  0.382346D-02
      8 -0.189733D-01 -0.355516D-01 -0.264888D-01  0.720233D-02  0.150314D-02
      9 -0.234432D-01  0.457939D-02 -0.400464D-01 -0.508991D-02  0.409355D-02
     10  0.109654D-01 -0.744544D-04  0.496956D-05 -0.510441D-01 -0.169317D-01
     11 -0.655783D-04 -0.556631D-02 -0.245070D-02  0.123387D-01 -0.265938D-01
     12  0.358304D-04  0.521842D-02  0.417625D-02  0.188401D-01  0.230709D-01
     13 -0.341758D-01  0.152423D-02  0.158616D-01 -0.154364D-02  0.531361D-02
     14 -0.292319D-01 -0.477836D-01  0.214760D-01  0.442182D-02  0.491419D-02
     15  0.941398D-02 -0.103660D-01 -0.328283D-01  0.879541D-02 -0.494998D-02
     16  0.845305D-02 -0.396480D-04 -0.341647D-05 -0.389125D-01 -0.197319D-02
     17 -0.395007D-04 -0.125939D-02 -0.803436D-03  0.162224D-01 -0.176814D-01
     18 -0.312681D-04 -0.760369D-02 -0.944148D-04 -0.383054D-02 -0.128670D-01
     19 -0.338582D-01 -0.166684D-02 -0.156561D-01 -0.282426D-01  0.217166D-01
     20  0.290399D-01 -0.480242D-01  0.216802D-01 -0.558113D-04 -0.436350D-01
     21 -0.951783D-02 -0.102910D-01 -0.328675D-01 -0.148478D-01 -0.167465D-01
     22  0.179391D-02 -0.599666D-02 -0.181771D-02 -0.784268D-02  0.368579D-03
     23 -0.102228D-02 -0.284708D-02 -0.375215D-02 -0.303432D-03  0.679515D-03
     24 -0.209316D-03 -0.331905D-02  0.897532D-02  0.355248D-03 -0.139155D-02
     25 -0.319445D-01 -0.888412D-02  0.146429D-01 -0.260627D-01  0.229457D-01
     26  0.189485D-01 -0.356620D-01 -0.266206D-01 -0.951540D-02 -0.575283D-01
     27  0.235024D-01  0.437152D-02 -0.400657D-01  0.120011D-01  0.600323D-02
                6             7             8             9            10 
      6  0.140858D+00
      7  0.206292D-02  0.160989D+00
      8 -0.376499D-03 -0.227695D-01  0.167638D+00
      9  0.350416D-02  0.354540D-01 -0.167069D-01  0.151687D+00
     10  0.297880D-01  0.314870D-02 -0.594058D-04  0.151769D-02  0.159335D+00
     11 -0.103843D-02  0.665748D-02 -0.362978D-03  0.433299D-02  0.180616D-03
     12 -0.426200D-01 -0.565933D-02  0.661241D-02  0.137852D-02 -0.106495D-03
     13 -0.389727D-03 -0.230805D-01  0.106389D-01 -0.122295D-01 -0.409181D-01
     14  0.413824D-03  0.304617D-02 -0.183184D-01  0.149417D-01  0.302162D-01
     15  0.260925D-02  0.163384D-01 -0.152041D-02 -0.415034D-01  0.263249D-02
     16 -0.266455D-01 -0.276507D-01  0.217799D-01  0.960214D-02  0.767600D-02
     17  0.892037D-02  0.107412D-01 -0.378084D-01 -0.231338D-01 -0.290194D-04
     18 -0.397799D-01 -0.127070D-01  0.449698D-02 -0.247720D-01  0.438424D-05
     19  0.164389D-01 -0.129582D-02  0.523698D-02 -0.782779D-02 -0.413094D-01
     20 -0.319691D-01  0.318163D-03  0.449478D-02 -0.980392D-03 -0.304215D-01
     21 -0.541114D-01 -0.993771D-02  0.489383D-02 -0.112759D-02 -0.257738D-02
     22 -0.369943D-03 -0.261573D-01  0.924893D-02 -0.119439D-01 -0.509452D-01
     23 -0.138912D-02 -0.231887D-01 -0.573726D-01  0.607869D-02  0.170995D-01
     24  0.787594D-02  0.324174D-02  0.221852D-01 -0.272664D-01 -0.297778D-01
     25 -0.306067D-02 -0.522519D-01 -0.123048D-01  0.139604D-01  0.309192D-02
     26  0.222007D-01  0.125311D-01 -0.242220D-01  0.679484D-02  0.196311D-04
     27 -0.273042D-01 -0.139113D-01  0.690419D-02 -0.218541D-01 -0.148583D-02
               11            12            13            14            15 
     11  0.177612D+00
     12 -0.334236D-01  0.145950D+00
     13  0.448470D-02  0.186604D-01  0.184920D+00
     14 -0.591321D-01 -0.167120D-01 -0.350679D-02  0.178538D+00
     15  0.140598D-01 -0.298126D-01 -0.399421D-01  0.217576D-01  0.197893D+00
     16 -0.295618D-04  0.116890D-04  0.384279D-02  0.497308D-03 -0.194327D-02
     17  0.750655D-04  0.214768D-02  0.311063D-02  0.396547D-02 -0.234035D-02
     18  0.937742D-03 -0.793839D-02  0.698758D-02 -0.421114D-02 -0.393079D-02
     19 -0.470406D-02 -0.188538D-01 -0.592103D-01 -0.515893D-02 -0.199964D-01
     20 -0.590951D-01 -0.166788D-01  0.548591D-02 -0.230969D-01 -0.448895D-02
     21  0.140755D-01 -0.299251D-01  0.198960D-01 -0.468587D-02 -0.371568D-01
     22 -0.121707D-01 -0.186339D-01 -0.284650D-01 -0.211243D-04  0.147253D-01
     23 -0.266257D-01  0.231987D-01 -0.218628D-01 -0.436278D-01 -0.169576D-01
     24 -0.834905D-03 -0.425960D-01 -0.166669D-01 -0.319382D-01 -0.541662D-01
     25 -0.669156D-02  0.570551D-02 -0.136937D-02 -0.262758D-03  0.997617D-02
     26 -0.311397D-03  0.656632D-02 -0.518833D-02  0.454058D-02  0.480581D-02
     27  0.434150D-02  0.138684D-02  0.782269D-02 -0.104193D-02 -0.110442D-02
               16            17            18            19            20 
     16  0.109676D+00
     17 -0.213124D-04  0.103816D+00
     18  0.117358D-03  0.319025D-01  0.144957D+00
     19  0.382215D-02 -0.310455D-02 -0.701768D-02  0.184796D+00
     20 -0.493977D-03  0.398399D-02 -0.414621D-02  0.354459D-02  0.178463D+00
     21  0.193022D-02 -0.234848D-02 -0.393393D-02  0.401911D-01  0.213932D-01
     22 -0.390087D-01 -0.160684D-01  0.372261D-02 -0.160355D-02 -0.438700D-02
     23  0.214119D-02 -0.175795D-01 -0.129014D-01 -0.526783D-02  0.501402D-02
     24  0.267115D-01  0.870810D-02 -0.397481D-01  0.384056D-03  0.400748D-03
     25 -0.278985D-01 -0.108114D-01  0.127545D-01 -0.230986D-01 -0.303032D-02
     26 -0.218607D-01 -0.375117D-01  0.439220D-02 -0.105959D-01 -0.181045D-01
     27 -0.978072D-02 -0.230525D-01 -0.247592D-01  0.123377D-01  0.147893D-01
               21            22            23            24            25 
     21  0.197815D+00
     22 -0.882921D-02  0.154015D+00
     23 -0.487795D-02  0.362006D-01  0.140764D+00
     24  0.259000D-02  0.180286D-01  0.655082D-02  0.140829D+00
     25 -0.163074D-01 -0.178665D-02 -0.379625D-02 -0.206715D-02  0.161320D+00
     26 -0.141277D-02 -0.717424D-02  0.159534D-02 -0.361183D-03  0.228355D-01
     27 -0.412830D-01  0.511817D-02  0.404998D-02  0.350616D-02 -0.356043D-01
               26            27 
     26  0.167204D+00
     27 -0.163653D-01  0.151478D+00
 Leave Link  716 at Thu Mar  8 06:01:54 2018, MaxMem=   536870912 cpu:         0.1
 (Enter /share/apps//mg09/l103.exe)

 GradGradGradGradGradGradGradGradGradGradGradGradGradGradGradGradGradGrad
 Berny optimization.
 Search for a local minimum.
 Step number   1 out of a maximum of  100
 All quantities printed in internal units (Hartrees-Bohrs-Radians)
 Second derivative matrix not updated -- first step.
 ITU=  0
     Eigenvalues ---    0.08052   0.11581   0.11921   0.12610   0.13845
     Eigenvalues ---    0.14096   0.14948   0.15128   0.16624   0.17141
     Eigenvalues ---    0.17693   0.22489   0.22910   0.22966   0.24736
     Eigenvalues ---    0.25617   0.27432   0.28507   0.28546   0.29638
     Eigenvalues ---    0.32894
 RFO step:  Lambda=-8.22831278D-03 EMin= 8.05183538D-02
 Linear search not attempted -- first point.
 TrRot=  0.000001  0.001052 -0.002501  1.555124  0.000122 -1.555125
 Variable       Old X    -DE/DX   Delta X   Delta X   Delta X     New X
                                 (Linear)    (Quad)   (Total)
    X1        0.02195  -0.00006   0.00000  -0.00036  -0.00034   0.02160
    Y1        5.08651  -0.01320   0.00000  -0.08994  -0.08861   4.99790
    Z1        2.30228  -0.00129   0.00000  -0.00658  -0.00969   2.29258
    X2        4.01318  -0.00755   0.00000  -0.05643  -0.05643   3.95674
    Y2       -2.83997   0.00450   0.00000   0.03002   0.03108  -2.80889
    Z2        0.07835   0.00266   0.00000   0.01102   0.00886   0.08720
    X3       -2.97658   0.00516   0.00000   0.03684   0.03684  -2.93974
    Y3        2.45151  -0.00399   0.00000  -0.03068  -0.02984   2.42167
    Z3       -1.87277   0.00458   0.00000   0.03307   0.03028  -1.84249
    X4       -0.01490   0.00002   0.00000  -0.00001  -0.00001  -0.01491
    Y4       -3.68525   0.01634   0.00000   0.08364   0.08514  -3.60011
    Z4        3.70469  -0.00517   0.00000  -0.03071  -0.03277   3.67192
    X5       -2.69000   0.01413   0.00000   0.06552   0.06553  -2.62447
    Y5        0.68273  -0.00453   0.00000  -0.01716  -0.01561   0.66712
    Z5        4.16490  -0.00820   0.00000  -0.04361  -0.04619   4.11871
    X6       -0.00875   0.00004   0.00000   0.00038   0.00037  -0.00838
    Y6       -2.30834   0.00478   0.00000   0.03096   0.03153  -2.27681
    Z6       -4.04986   0.00859   0.00000   0.06031   0.05809  -3.99178
    X7        2.68916  -0.01413   0.00000  -0.06536  -0.06535   2.62381
    Y7        0.65784  -0.00439   0.00000  -0.01639  -0.01484   0.64301
    Z7        4.17247  -0.00832   0.00000  -0.04425  -0.04683   4.12563
    X8       -4.03676   0.00764   0.00000   0.05690   0.05690  -3.97985
    Y8       -2.80918   0.00447   0.00000   0.02974   0.03081  -2.77837
    Z8        0.07710   0.00260   0.00000   0.01055   0.00840   0.08549
    X9        2.99828  -0.00525   0.00000  -0.03750  -0.03750   2.96078
    Y9        2.42802  -0.00398   0.00000  -0.03049  -0.02966   2.39835
    Z9       -1.87263   0.00454   0.00000   0.03267   0.02987  -1.84276
         Item               Value     Threshold  Converged?
 Maximum Force            0.016344     0.000450     NO 
 RMS     Force            0.007300     0.000300     NO 
 Maximum Displacement     0.088607     0.001800     NO 
 RMS     Displacement     0.042524     0.001200     NO 
 Predicted change in Energy=-4.315488D-03
 Lowest energy point so far.  Saving SCF results.
 GradGradGradGradGradGradGradGradGradGradGradGradGradGradGradGradGradGrad

 Leave Link  103 at Thu Mar  8 06:01:54 2018, MaxMem=   536870912 cpu:         0.1
 (Enter /share/apps//mg09/l202.exe)
                          Input orientation:                          
 ---------------------------------------------------------------------
 Center     Atomic      Atomic             Coordinates (Angstroms)
 Number     Number       Type             X           Y           Z
 ---------------------------------------------------------------------
      1         50           0        0.011432    2.644775    1.213183
      2         83           0        2.093818   -1.486402    0.046147
      3         83           0       -1.555642    1.281491   -0.975003
      4         32           0       -0.007891   -1.905096    1.943094
      5         32           0       -1.388810    0.353024    2.179526
      6         50           0       -0.004436   -1.204834   -2.112358
      7         32           0        1.388459    0.340265    2.183191
      8         83           0       -2.106047   -1.470252    0.045241
      9         83           0        1.566776    1.269153   -0.975147
 ---------------------------------------------------------------------
                    Distance matrix (angstroms):
                    1          2          3          4          5
     1  Sn   0.000000
     2  Bi   4.771260   0.000000
     3  Bi   3.017022   4.692817   0.000000
     4  Ge   4.608088   2.861974   4.589680   0.000000
     5  Ge   2.854228   4.479228   3.292558   2.657432   0.000000
     6  Sn   5.087137   3.023423   3.143505   4.115467   4.771130
     7  Ge   2.854451   2.898482   4.419031   2.655011   2.777301
     8  Bi   4.772971   4.199896   2.985956   2.862376   2.897229
     9  Bi   3.016656   2.985615   3.122443   4.590377   4.418907
                    6          7          8          9
     6  Sn   0.000000
     7  Ge   4.772758   0.000000
     8  Bi   3.023649   4.478881   0.000000
     9  Bi   3.143655   3.296927   4.694162   0.000000
 Stoichiometry    Bi4Ge3Sn2
 Framework group  C1[X(Bi4Ge3Sn2)]
 Deg. of freedom    21
 Full point group                 C1      NOp   1
 RotChk:  IX=0 Diff= 7.91D-04
 Largest Abelian subgroup         C1      NOp   1
 Largest concise Abelian subgroup C1      NOp   1
                         Standard orientation:                         
 ---------------------------------------------------------------------
 Center     Atomic      Atomic             Coordinates (Angstroms)
 Number     Number       Type             X           Y           Z
 ---------------------------------------------------------------------
      1         50           0        0.009962    2.645689    1.208353
      2         83           0        2.094657   -1.484323    0.041317
      3         83           0       -1.556350    1.281529   -0.979833
      4         32           0       -0.006817   -1.904192    1.938265
      5         32           0       -1.388998    0.353156    2.174696
      6         50           0       -0.003753   -1.203928   -2.117187
      7         32           0        1.388278    0.341949    2.178361
      8         83           0       -2.105216   -1.470521    0.040412
      9         83           0        1.566075    1.270937   -0.979976
 ---------------------------------------------------------------------
 Rotational constants (GHZ):      0.1019939      0.0967134      0.0839031
 Leave Link  202 at Thu Mar  8 06:01:55 2018, MaxMem=   536870912 cpu:         0.1
 (Enter /share/apps//mg09/l301.exe)
 Standard basis: def2TZVP (5D, 7F)
 Ernie: Thresh=  0.10000D-02 Tol=  0.10000D-05 Strict=F.
 There are   519 symmetry adapted cartesian basis functions of A   symmetry.
 There are   444 symmetry adapted basis functions of A   symmetry.
   444 basis functions,   963 primitive gaussians,   519 cartesian basis functions
   116 alpha electrons      116 beta electrons
       nuclear repulsion energy      3639.5780700989 Hartrees.
 IExCor= 1009 DFT=T Ex+Corr=PBE1PBE ExCW=0 ScaHFX=  0.250000
 ScaDFX=  0.750000  0.750000  1.000000  1.000000 ScalE2=  1.000000  1.000000
 IRadAn=      0 IRanWt=     -1 IRanGd=            0 ICorTp=0 IEmpDi=  4
 NAtoms=    9 NActive=    9 NUniq=    9 SFac= 1.00D+00 NAtFMM=   60 NAOKFM=F Big=F
 Integral buffers will be    131072 words long.
 Raffenetti 2 integral format.
 Two-electron integral symmetry is turned on.
 Leave Link  301 at Thu Mar  8 06:01:56 2018, MaxMem=   536870912 cpu:         0.2
 (Enter /share/apps//mg09/l302.exe)
 NPDir=0 NMtPBC=     1 NCelOv=     1 NCel=       1 NClECP=     1 NCelD=      1
         NCelK=      1 NCelE2=     1 NClLst=     1 CellRange=     0.0.
 One-electron integrals computed using PRISM.
   1 Symmetry operations used in ECPInt.
 ECPInt:  NShTT=   10440 NPrTT=   41973 LenC2=    9715 LenP2D=   27642.
 LDataN:  DoStor=T MaxTD1= 8 Len=  415
 NBasis=   444 RedAO= T EigKep=  1.03D-03  NBF=   444
 NBsUse=   444 1.00D-06 EigRej= -1.00D+00 NBFU=   444
 Precomputing XC quadrature grid using
 IXCGrd= 4 IRadAn=           0 IRanWt=          -1 IRanGd=           0 AccXCQ= 0.00D+00.
 Defaulting to unpruned grid for atomic number  50.
 Defaulting to unpruned grid for atomic number  83.
 Defaulting to unpruned grid for atomic number  50.
 Generated NRdTot=       0 NPtTot=           0 NUsed=           0 NTot=          32
 NSgBfM=   502   502   502   502   502 MxSgAt=     9 MxSgA2=     9.
 Leave Link  302 at Thu Mar  8 06:02:04 2018, MaxMem=   536870912 cpu:        33.4
 (Enter /share/apps//mg09/l303.exe)
 DipDrv:  MaxL=1.
 Leave Link  303 at Thu Mar  8 06:02:04 2018, MaxMem=   536870912 cpu:         0.5
 (Enter /share/apps//mg09/l401.exe)
 Initial guess from the checkpoint file:  "Isomer_31.chk"
 B after Tr=     0.000000    0.000000    0.000000
         Rot=    1.000000   -0.000117    0.000001   -0.000282 Ang=  -0.03 deg.
 Guess basis will be translated and rotated to current coordinates.
 JPrj=2 DoOrth=T DoCkMO=T.
 Generating alternative initial guess.
 ExpMin= 4.62D-02 ExpMax= 4.66D+05 ExpMxC= 4.50D+03 IAcc=2 IRadAn=         4 AccDes= 0.00D+00
 Harris functional with IExCor= 1009 and IRadAn=       4 diagonalized for initial guess.
 HarFok:  IExCor= 1009 AccDes= 0.00D+00 IRadAn=         4 IDoV= 1 UseB2=F ITyADJ=14
 ICtDFT=  3500011 ScaDFX=  1.000000  1.000000  1.000000  1.000000
 Defaulting to unpruned grid for atomic number  50.
 Defaulting to unpruned grid for atomic number  50.
 Defaulting to unpruned grid for atomic number  50.
 Defaulting to unpruned grid for atomic number  50.
 FoFCou: FMM=F IPFlag=           0 FMFlag=      100000 FMFlg1=           0
         NFxFlg=           0 DoJE=T BraDBF=F KetDBF=T FulRan=T
         wScrn=  0.000000 ICntrl=     500 IOpCl=  0 I1Cent=   200000004 NGrid=           0
         NMat0=    1 NMatS0=      1 NMatT0=    0 NMatD0=    1 NMtDS0=    0 NMtDT0=    0
 Petite list used in FoFCou.
 Harris En= -7518.63141976235    
 Leave Link  401 at Thu Mar  8 06:02:08 2018, MaxMem=   536870912 cpu:        14.5
 (Enter /share/apps//mg09/l502.exe)
 Closed shell SCF:
 Using DIIS extrapolation, IDIIS=  1040.
 Integral symmetry usage will be decided dynamically.
 IVT=     1410107 IEndB=     1410107 NGot=   536870912 MDV=   536322046
 LenX=   536322046 LenY=   536052166
 Requested convergence on RMS density matrix=1.00D-08 within 768 cycles.
 Requested convergence on MAX density matrix=1.00D-06.
 Requested convergence on             energy=1.00D-06.
 No special actions if energy rises.
 Fock matrices will be formed incrementally for  20 cycles.

 Cycle   1  Pass 1  IDiag  1:
 FoFJK:  IHMeth= 1 ICntrl=       0 DoSepK=F KAlg= 0 I1Cent=   0 FoldK=F
 IRaf= 880000000 NMat=   1 IRICut=       1 DoRegI=T DoRafI=F ISym2E= 0.
 FoFCou: FMM=F IPFlag=           0 FMFlag=      100000 FMFlg1=           0
         NFxFlg=           0 DoJE=F BraDBF=F KetDBF=F FulRan=T
         wScrn=  0.000000 ICntrl=       0 IOpCl=  0 I1Cent=           0 NGrid=           0
         NMat0=    1 NMatS0=      1 NMatT0=    0 NMatD0=    1 NMtDS0=    0 NMtDT0=    0
 Symmetry not used in FoFCou.
 Defaulting to unpruned grid for atomic number  50.
 Defaulting to unpruned grid for atomic number  50.
 Defaulting to unpruned grid for atomic number  50.
 Defaulting to unpruned grid for atomic number  50.
 E= -7517.81832803465    
 DIIS: error= 5.24D-03 at cycle   1 NSaved=   1.
 NSaved= 1 IEnMin= 1 EnMin= -7517.81832803465     IErMin= 1 ErrMin= 5.24D-03
 ErrMax= 5.24D-03  0.00D+00 EMaxC= 1.00D-01 BMatC= 7.08D-03 BMatP= 7.08D-03
 IDIUse=3 WtCom= 9.48D-01 WtEn= 5.24D-02
 Coeff-Com:  0.100D+01
 Coeff-En:   0.100D+01
 Coeff:      0.100D+01
 Gap=     7.629 Goal=   None    Shift=    0.000
 GapD=    7.629 DampG=2.000 DampE=1.000 DampFc=2.0000 IDamp=-1.
 RMSDP=1.82D-04 MaxDP=4.07D-03              OVMax= 2.41D-02

 Cycle   2  Pass 1  IDiag  1:
 RMSU=  1.82D-04    CP:  1.00D+00
 E= -7517.81836387944     Delta-E=       -0.000035844787 Rises=F Damp=F
 DIIS: error= 1.81D-03 at cycle   2 NSaved=   2.
 NSaved= 2 IEnMin= 2 EnMin= -7517.81836387944     IErMin= 2 ErrMin= 1.81D-03
 ErrMax= 1.81D-03  0.00D+00 EMaxC= 1.00D-01 BMatC= 1.56D-03 BMatP= 7.08D-03
 IDIUse=3 WtCom= 9.82D-01 WtEn= 1.81D-02
 Coeff-Com:  0.221D+00 0.779D+00
 Coeff-En:   0.490D+00 0.510D+00
 Coeff:      0.226D+00 0.774D+00
 Gap=     0.121 Goal=   None    Shift=    0.000
 RMSDP=2.06D-04 MaxDP=8.76D-03 DE=-3.58D-05 OVMax= 1.83D-02

 Cycle   3  Pass 1  IDiag  1:
 RMSU=  1.92D-04    CP:  9.99D-01  6.04D-01
 E= -7517.81648669688     Delta-E=        0.001877182556 Rises=F Damp=F
 DIIS: error= 2.57D-03 at cycle   3 NSaved=   3.
 NSaved= 3 IEnMin= 2 EnMin= -7517.81836387944     IErMin= 2 ErrMin= 1.81D-03
 ErrMax= 2.57D-03  0.00D+00 EMaxC= 1.00D-01 BMatC= 3.57D-03 BMatP= 1.56D-03
 IDIUse=3 WtCom= 1.65D-01 WtEn= 8.35D-01
 Coeff-Com:  0.104D-01 0.599D+00 0.391D+00
 Coeff-En:   0.000D+00 0.660D+00 0.340D+00
 Coeff:      0.171D-02 0.650D+00 0.348D+00
 Gap=     0.123 Goal=   None    Shift=    0.000
 RMSDP=1.18D-04 MaxDP=4.76D-03 DE= 1.88D-03 OVMax= 1.44D-02

 Cycle   4  Pass 1  IDiag  1:
 RMSU=  4.75D-05    CP:  9.99D-01  8.33D-01  4.82D-01
 E= -7517.81945189447     Delta-E=       -0.002965197593 Rises=F Damp=F
 DIIS: error= 5.30D-04 at cycle   4 NSaved=   4.
 NSaved= 4 IEnMin= 4 EnMin= -7517.81945189447     IErMin= 4 ErrMin= 5.30D-04
 ErrMax= 5.30D-04  0.00D+00 EMaxC= 1.00D-01 BMatC= 2.43D-04 BMatP= 1.56D-03
 IDIUse=3 WtCom= 9.95D-01 WtEn= 5.30D-03
 Coeff-Com:  0.242D-03 0.434D+00 0.242D+00 0.324D+00
 Coeff-En:   0.000D+00 0.950D-01 0.000D+00 0.905D+00
 Coeff:      0.241D-03 0.432D+00 0.240D+00 0.327D+00
 Gap=     0.123 Goal=   None    Shift=    0.000
 RMSDP=4.13D-05 MaxDP=2.55D-03 DE=-2.97D-03 OVMax= 4.70D-03

 Cycle   5  Pass 1  IDiag  1:
 RMSU=  1.48D-05    CP:  9.99D-01  8.86D-01  4.47D-01  2.33D-01
 E= -7517.81965601054     Delta-E=       -0.000204116066 Rises=F Damp=F
 DIIS: error= 1.37D-04 at cycle   5 NSaved=   5.
 NSaved= 5 IEnMin= 5 EnMin= -7517.81965601054     IErMin= 5 ErrMin= 1.37D-04
 ErrMax= 1.37D-04  0.00D+00 EMaxC= 1.00D-01 BMatC= 1.69D-05 BMatP= 2.43D-04
 IDIUse=3 WtCom= 9.99D-01 WtEn= 1.37D-03
 Coeff-Com: -0.119D-02 0.219D+00 0.112D+00 0.238D+00 0.433D+00
 Coeff-En:   0.000D+00 0.000D+00 0.000D+00 0.802D-01 0.920D+00
 Coeff:     -0.119D-02 0.218D+00 0.112D+00 0.237D+00 0.433D+00
 Gap=     0.123 Goal=   None    Shift=    0.000
 RMSDP=1.09D-05 MaxDP=6.71D-04 DE=-2.04D-04 OVMax= 1.28D-03

 Cycle   6  Pass 1  IDiag  1:
 RMSU=  3.91D-06    CP:  9.99D-01  8.95D-01  4.37D-01  3.97D-01  6.07D-01
 E= -7517.81967387113     Delta-E=       -0.000017860595 Rises=F Damp=F
 DIIS: error= 1.60D-05 at cycle   6 NSaved=   6.
 NSaved= 6 IEnMin= 6 EnMin= -7517.81967387113     IErMin= 6 ErrMin= 1.60D-05
 ErrMax= 1.60D-05  0.00D+00 EMaxC= 1.00D-01 BMatC= 3.19D-07 BMatP= 1.69D-05
 IDIUse=1 WtCom= 1.00D+00 WtEn= 0.00D+00
 Coeff-Com: -0.443D-03 0.509D-01 0.280D-01 0.644D-01 0.168D+00 0.690D+00
 Coeff:     -0.443D-03 0.509D-01 0.280D-01 0.644D-01 0.168D+00 0.690D+00
 Gap=     0.123 Goal=   None    Shift=    0.000
 RMSDP=2.59D-06 MaxDP=2.06D-04 DE=-1.79D-05 OVMax= 3.51D-04

 Cycle   7  Pass 1  IDiag  1:
 RMSU=  2.12D-06    CP:  9.99D-01  8.98D-01  4.42D-01  3.89D-01  6.70D-01
                    CP:  9.50D-01
 E= -7517.81967394010     Delta-E=       -0.000000068965 Rises=F Damp=F
 DIIS: error= 1.91D-05 at cycle   7 NSaved=   7.
 NSaved= 7 IEnMin= 7 EnMin= -7517.81967394010     IErMin= 6 ErrMin= 1.60D-05
 ErrMax= 1.91D-05  0.00D+00 EMaxC= 1.00D-01 BMatC= 2.40D-07 BMatP= 3.19D-07
 IDIUse=1 WtCom= 1.00D+00 WtEn= 0.00D+00
 Coeff-Com: -0.126D-03-0.141D-03 0.194D-02 0.823D-02 0.508D-01 0.531D+00
 Coeff-Com:  0.408D+00
 Coeff:     -0.126D-03-0.141D-03 0.194D-02 0.823D-02 0.508D-01 0.531D+00
 Coeff:      0.408D+00
 Gap=     0.123 Goal=   None    Shift=    0.000
 RMSDP=1.98D-06 MaxDP=8.52D-05 DE=-6.90D-08 OVMax= 2.28D-04

 Cycle   8  Pass 1  IDiag  1:
 RMSU=  1.10D-06    CP:  9.99D-01  8.99D-01  4.44D-01  3.92D-01  6.83D-01
                    CP:  1.14D+00  3.56D-01
 E= -7517.81967416292     Delta-E=       -0.000000222823 Rises=F Damp=F
 DIIS: error= 9.78D-06 at cycle   8 NSaved=   8.
 NSaved= 8 IEnMin= 8 EnMin= -7517.81967416292     IErMin= 8 ErrMin= 9.78D-06
 ErrMax= 9.78D-06  0.00D+00 EMaxC= 1.00D-01 BMatC= 8.47D-08 BMatP= 2.40D-07
 IDIUse=1 WtCom= 1.00D+00 WtEn= 0.00D+00
 Coeff-Com:  0.212D-04-0.162D-01-0.697D-02-0.116D-01-0.640D-02 0.268D+00
 Coeff-Com:  0.374D+00 0.400D+00
 Coeff:      0.212D-04-0.162D-01-0.697D-02-0.116D-01-0.640D-02 0.268D+00
 Coeff:      0.374D+00 0.400D+00
 Gap=     0.123 Goal=   None    Shift=    0.000
 RMSDP=8.28D-07 MaxDP=3.22D-05 DE=-2.23D-07 OVMax= 9.39D-05

 Cycle   9  Pass 1  IDiag  1:
 RMSU=  3.03D-07    CP:  9.99D-01  9.00D-01  4.44D-01  3.95D-01  6.88D-01
                    CP:  1.17D+00  5.42D-01  4.46D-01
 E= -7517.81967426935     Delta-E=       -0.000000106433 Rises=F Damp=F
 DIIS: error= 1.43D-06 at cycle   9 NSaved=   9.
 NSaved= 9 IEnMin= 9 EnMin= -7517.81967426935     IErMin= 9 ErrMin= 1.43D-06
 ErrMax= 1.43D-06  0.00D+00 EMaxC= 1.00D-01 BMatC= 2.25D-09 BMatP= 8.47D-08
 IDIUse=1 WtCom= 1.00D+00 WtEn= 0.00D+00
 Coeff-Com:  0.252D-04-0.904D-02-0.408D-02-0.698D-02-0.944D-02 0.915D-01
 Coeff-Com:  0.177D+00 0.216D+00 0.544D+00
 Coeff:      0.252D-04-0.904D-02-0.408D-02-0.698D-02-0.944D-02 0.915D-01
 Coeff:      0.177D+00 0.216D+00 0.544D+00
 Gap=     0.123 Goal=   None    Shift=    0.000
 RMSDP=1.84D-07 MaxDP=1.15D-05 DE=-1.06D-07 OVMax= 3.09D-05

 Cycle  10  Pass 1  IDiag  1:
 RMSU=  9.81D-08    CP:  9.99D-01  9.00D-01  4.44D-01  3.96D-01  6.93D-01
                    CP:  1.16D+00  5.72D-01  5.16D-01  8.26D-01
 E= -7517.81967427212     Delta-E=       -0.000000002767 Rises=F Damp=F
 DIIS: error= 1.98D-07 at cycle  10 NSaved=  10.
 NSaved=10 IEnMin=10 EnMin= -7517.81967427212     IErMin=10 ErrMin= 1.98D-07
 ErrMax= 1.98D-07  0.00D+00 EMaxC= 1.00D-01 BMatC= 9.61D-11 BMatP= 2.25D-09
 IDIUse=1 WtCom= 1.00D+00 WtEn= 0.00D+00
 Coeff-Com:  0.295D-05-0.268D-03-0.104D-03-0.308D-03-0.172D-02-0.900D-02
 Coeff-Com:  0.135D-03 0.716D-02 0.163D+00 0.841D+00
 Coeff:      0.295D-05-0.268D-03-0.104D-03-0.308D-03-0.172D-02-0.900D-02
 Coeff:      0.135D-03 0.716D-02 0.163D+00 0.841D+00
 Gap=     0.123 Goal=   None    Shift=    0.000
 RMSDP=6.16D-08 MaxDP=2.47D-06 DE=-2.77D-09 OVMax= 1.24D-05

 Cycle  11  Pass 1  IDiag  1:
 RMSU=  3.03D-08    CP:  9.99D-01  9.00D-01  4.45D-01  3.97D-01  6.94D-01
                    CP:  1.17D+00  5.78D-01  5.19D-01  9.26D-01  1.10D+00
 E= -7517.81967427260     Delta-E=       -0.000000000478 Rises=F Damp=F
 DIIS: error= 1.26D-07 at cycle  11 NSaved=  11.
 NSaved=11 IEnMin=11 EnMin= -7517.81967427260     IErMin=11 ErrMin= 1.26D-07
 ErrMax= 1.26D-07  0.00D+00 EMaxC= 1.00D-01 BMatC= 2.89D-11 BMatP= 9.61D-11
 IDIUse=1 WtCom= 1.00D+00 WtEn= 0.00D+00
 Coeff-Com: -0.546D-06 0.648D-03 0.315D-03 0.432D-03-0.112D-03-0.129D-01
 Coeff-Com: -0.161D-01-0.150D-01 0.434D-01 0.470D+00 0.530D+00
 Coeff:     -0.546D-06 0.648D-03 0.315D-03 0.432D-03-0.112D-03-0.129D-01
 Coeff:     -0.161D-01-0.150D-01 0.434D-01 0.470D+00 0.530D+00
 Gap=     0.123 Goal=   None    Shift=    0.000
 RMSDP=1.89D-08 MaxDP=9.01D-07 DE=-4.78D-10 OVMax= 3.11D-06

 Cycle  12  Pass 1  IDiag  1:
 RMSU=  1.21D-08    CP:  9.99D-01  9.00D-01  4.45D-01  3.97D-01  6.94D-01
                    CP:  1.18D+00  5.77D-01  5.24D-01  9.43D-01  1.17D+00
                    CP:  7.14D-01
 E= -7517.81967427208     Delta-E=        0.000000000517 Rises=F Damp=F
 DIIS: error= 4.84D-08 at cycle  12 NSaved=  12.
 NSaved=12 IEnMin=11 EnMin= -7517.81967427260     IErMin=12 ErrMin= 4.84D-08
 ErrMax= 4.84D-08  0.00D+00 EMaxC= 1.00D-01 BMatC= 3.71D-12 BMatP= 2.89D-11
 IDIUse=1 WtCom= 1.00D+00 WtEn= 0.00D+00
 Coeff-Com: -0.572D-06 0.406D-03 0.196D-03 0.278D-03 0.132D-03-0.668D-02
 Coeff-Com: -0.960D-02-0.982D-02 0.483D-02 0.170D+00 0.317D+00 0.533D+00
 Coeff:     -0.572D-06 0.406D-03 0.196D-03 0.278D-03 0.132D-03-0.668D-02
 Coeff:     -0.960D-02-0.982D-02 0.483D-02 0.170D+00 0.317D+00 0.533D+00
 Gap=     0.123 Goal=   None    Shift=    0.000
 RMSDP=7.74D-09 MaxDP=4.08D-07 DE= 5.17D-10 OVMax= 1.08D-06

 SCF Done:  E(RPBE1PBE) =  -7517.81967427     A.U. after   12 cycles
            NFock= 12  Conv=0.77D-08     -V/T= 2.1284
 KE= 6.662162000539D+03 PE=-2.487060430768D+04 EE= 7.051044562774D+03
 Leave Link  502 at Thu Mar  8 06:13:11 2018, MaxMem=   536870912 cpu:      2587.6
 (Enter /share/apps//mg09/l701.exe)
 Compute integral first derivatives.
 ... and contract with generalized density number  0.
   1 Symmetry operations used in ECPInt.
 ECPInt:  NShTT=   10440 NPrTT=   41973 LenC2=    9715 LenP2D=   27642.
 LDataN:  DoStor=T MaxTD1= 9 Len=  602
 Leave Link  701 at Thu Mar  8 06:13:34 2018, MaxMem=   536870912 cpu:        86.2
 (Enter /share/apps//mg09/l702.exe)
 L702 exits ... SP integral derivatives will be done elsewhere.
 Leave Link  702 at Thu Mar  8 06:13:34 2018, MaxMem=   536870912 cpu:         0.1
 (Enter /share/apps//mg09/l703.exe)
 Compute integral first derivatives, UseDBF=F ICtDFT=           0.
 Integral derivatives from FoFJK, PRISM(SPDF).
 Calling FoFJK, ICntrl=      2127 FMM=F ISym2X=0 I1Cent= 0 IOpClX= 0 NMat=1 NMatS=1 NMatT=0.
 FoFJK:  IHMeth= 1 ICntrl=    2127 DoSepK=F KAlg= 0 I1Cent=   0 FoldK=F
 IRaf=         0 NMat=   1 IRICut=       1 DoRegI=T DoRafI=F ISym2E= 0.
 FoFCou: FMM=F IPFlag=           0 FMFlag=      100000 FMFlg1=         800
         NFxFlg=           0 DoJE=F BraDBF=F KetDBF=F FulRan=T
         wScrn=  0.000000 ICntrl=    2127 IOpCl=  0 I1Cent=           0 NGrid=           0
         NMat0=    1 NMatS0=      1 NMatT0=    0 NMatD0=    1 NMtDS0=    0 NMtDT0=    0
 Symmetry not used in FoFCou.
 Defaulting to unpruned grid for atomic number  50.
 Defaulting to unpruned grid for atomic number  50.
 Defaulting to unpruned grid for atomic number  50.
 Defaulting to unpruned grid for atomic number  50.
 Leave Link  703 at Thu Mar  8 06:17:13 2018, MaxMem=   536870912 cpu:       835.4
 (Enter /share/apps//mg09/l716.exe)
 Dipole        = 1.72747210D-06 1.94848110D-01-7.91767791D-01
 ***** Axes restored to original set *****
 -------------------------------------------------------------------
 Center     Atomic                   Forces (Hartrees/Bohr)
 Number     Number              X              Y              Z
 -------------------------------------------------------------------
      1       50          -0.000025681   -0.005399724    0.001118078
      2       83          -0.001794514    0.000057466    0.002197822
      3       83           0.000549183   -0.000297765    0.000777364
      4       32          -0.000015394    0.008886451   -0.001643878
      5       32           0.008418135   -0.002679826   -0.004201097
      6       50           0.000029052    0.002275064    0.003158475
      7       32          -0.008397923   -0.002572635   -0.004302868
      8       83           0.001828985    0.000057439    0.002142888
      9       83          -0.000591845   -0.000326470    0.000753216
 -------------------------------------------------------------------
 Cartesian Forces:  Max     0.008886451 RMS     0.003530813
 Leave Link  716 at Thu Mar  8 06:17:13 2018, MaxMem=   536870912 cpu:         0.1
 (Enter /share/apps//mg09/l103.exe)

 GradGradGradGradGradGradGradGradGradGradGradGradGradGradGradGradGradGrad
 Berny optimization.
 Search for a local minimum.
 Step number   2 out of a maximum of  100
 All quantities printed in internal units (Hartrees-Bohrs-Radians)
 Update second derivatives using D2CorN and points    1    2
 DE= -5.91D-03 DEPred=-4.32D-03 R= 1.37D+00
 TightC=F SS=  1.41D+00  RLast= 2.21D-01 DXNew= 5.0454D-01 6.6288D-01
 Trust test= 1.37D+00 RLast= 2.21D-01 DXMaxT set to 5.05D-01
 ITU=  1  0
     Eigenvalues ---    0.07989   0.09621   0.11582   0.12016   0.12612
     Eigenvalues ---    0.13846   0.14258   0.14954   0.16625   0.17063
     Eigenvalues ---    0.17696   0.22345   0.22813   0.22970   0.24569
     Eigenvalues ---    0.25620   0.27153   0.28448   0.28547   0.29516
     Eigenvalues ---    0.32896
 RFO step:  Lambda=-5.31930921D-04 EMin= 7.98881436D-02
 Quartic linear search produced a step of  0.63585.
 TrRot= -0.000002  0.000091 -0.000083  0.000000  0.000002  0.000000
 Variable       Old X    -DE/DX   Delta X   Delta X   Delta X     New X
                                 (Linear)    (Quad)   (Total)
    X1        0.02160  -0.00003  -0.00022  -0.00004  -0.00025   0.02135
    Y1        4.99790  -0.00540  -0.05634  -0.00024  -0.05649   4.94141
    Z1        2.29258   0.00112  -0.00616   0.01178   0.00553   2.29812
    X2        3.95674  -0.00179  -0.03588   0.00803  -0.02785   3.92889
    Y2       -2.80889   0.00006   0.01976  -0.01483   0.00502  -2.80388
    Z2        0.08720   0.00220   0.00563   0.00869   0.01423   0.10144
    X3       -2.93974   0.00055   0.02343  -0.01193   0.01149  -2.92825
    Y3        2.42167  -0.00030  -0.01898   0.00967  -0.00922   2.41245
    Z3       -1.84249   0.00078   0.01926  -0.00719   0.01199  -1.83050
    X4       -0.01491  -0.00002   0.00000  -0.00022  -0.00022  -0.01513
    Y4       -3.60011   0.00889   0.05414   0.01473   0.06895  -3.53115
    Z4        3.67192  -0.00164  -0.02084   0.00660  -0.01432   3.65760
    X5       -2.62447   0.00842   0.04167   0.01371   0.05538  -2.56909
    Y5        0.66712  -0.00268  -0.00992  -0.00500  -0.01483   0.65229
    Z5        4.11871  -0.00420  -0.02937  -0.00503  -0.03448   4.08423
    X6       -0.00838   0.00003   0.00023   0.00020   0.00043  -0.00796
    Y6       -2.27681   0.00228   0.02005   0.00477   0.02491  -2.25190
    Z6       -3.99178   0.00316   0.03693  -0.00957   0.02728  -3.96450
    X7        2.62381  -0.00840  -0.04155  -0.01348  -0.05503   2.56878
    Y7        0.64301  -0.00257  -0.00943  -0.00463  -0.01397   0.62904
    Z7        4.12563  -0.00430  -0.02978  -0.00546  -0.03533   4.09030
    X8       -3.97985   0.00183   0.03618  -0.00808   0.02810  -3.95175
    Y8       -2.77837   0.00006   0.01959  -0.01470   0.00499  -2.77339
    Z8        0.08549   0.00214   0.00534   0.00832   0.01358   0.09907
    X9        2.96078  -0.00059  -0.02385   0.01180  -0.01205   2.94873
    Y9        2.39835  -0.00033  -0.01886   0.00942  -0.00935   2.38900
[...]
                   X                            XX                                                                                   
                   X                            XX                                                                                   
                   X                            XX                                                                                   
                   X                            XX                                                                                   
                   X                            XX                                                                                   
                   X                            XX                                                                                   
                   X                             X                                                                                   
                   X                             X                                                                                   
                   X                             X                                                                                   
                   X                                                                                                                 
                   X                                                                                                                 
                   X                                                                                                                 
                   X                                                                                                                 
                   X                                                                                                                 
                   X                                                                                                                 
 
 ***** Axes restored to original set *****
 -------------------------------------------------------------------
 Center     Atomic                   Forces (Hartrees/Bohr)
 Number     Number              X              Y              Z
 -------------------------------------------------------------------
      1       50          -0.000003528    0.000099208   -0.000046547
      2       83           0.000011469    0.000042294   -0.000063146
      3       83           0.000134924   -0.000044592    0.000069099
      4       32          -0.000002051   -0.000035209    0.000028532
      5       32           0.000071685    0.000010101    0.000027748
      6       50          -0.000007064   -0.000093995   -0.000063426
      7       32          -0.000069133    0.000018214    0.000008350
      8       83          -0.000006571    0.000048156   -0.000057089
      9       83          -0.000129731   -0.000044177    0.000096479
 -------------------------------------------------------------------
 Cartesian Forces:  Max     0.000134924 RMS     0.000061694
 Force constants in Cartesian coordinates: 
                1             2             3             4             5 
      1  0.379476D-01
      2  0.192567D-03  0.804072D-01
      3  0.415652D-04  0.958569D-02  0.503347D-01
      4  0.907397D-04 -0.291830D-03 -0.915962D-03  0.629034D-01
      5  0.534992D-02 -0.199562D-02 -0.210978D-02 -0.229335D-01  0.670233D-01
      6 -0.794783D-03 -0.351367D-03 -0.592141D-03 -0.536864D-02 -0.249313D-02
      7 -0.980995D-02 -0.713206D-02 -0.150960D-01 -0.319389D-02  0.299986D-02
      8 -0.667269D-02 -0.102271D-01 -0.108219D-01 -0.222814D-03 -0.220800D-02
      9 -0.150244D-01 -0.105327D-01 -0.201200D-01  0.216641D-02 -0.519577D-04
     10 -0.768108D-02  0.198497D-04 -0.273580D-05 -0.208021D-01 -0.141807D-02
     11  0.173143D-04 -0.334032D-02  0.891631D-03 -0.862317D-04 -0.368245D-02
     12 -0.635649D-05 -0.730305D-03 -0.320756D-02  0.169156D-01  0.245477D-02
     13 -0.543931D-02 -0.120761D-01  0.583052D-02 -0.612250D-02 -0.238875D-02
     14 -0.154336D-01 -0.256593D-01  0.100719D-01  0.345759D-03 -0.460043D-02
     15  0.568817D-02  0.598540D-02 -0.225666D-02 -0.357246D-03 -0.153553D-02
     16 -0.257430D-03 -0.118338D-05 -0.241393D-04 -0.189342D-01  0.501648D-02
     17  0.255603D-05 -0.984067D-03 -0.469181D-02  0.524017D-02 -0.277981D-02
     18  0.000000D+00  0.100486D-02 -0.116769D-02 -0.173149D-01  0.982798D-03
     19 -0.519825D-02  0.118881D-01 -0.574044D-02 -0.369082D-02  0.978641D-02
     20  0.152426D-01 -0.259138D-01  0.101594D-01  0.699388D-02 -0.124499D-01
     21 -0.563671D-02  0.606077D-02 -0.227499D-02  0.470301D-02 -0.167573D-01
     22  0.487754D-04  0.276159D-03  0.902623D-03 -0.608550D-02 -0.389054D-02
     23 -0.536539D-02 -0.195025D-02 -0.212810D-02  0.395230D-02  0.148659D-02
     24  0.800666D-03 -0.355100D-03 -0.594975D-03  0.958145D-03  0.200703D-02
     25 -0.970108D-02  0.712452D-02  0.150046D-01 -0.416516D-02  0.747823D-02
     26  0.666680D-02 -0.103367D-01 -0.109569D-01  0.700231D-02 -0.407937D-01
     27  0.149324D-01 -0.106673D-01 -0.201208D-01 -0.786394D-03  0.175031D-01
                6             7             8             9            10 
      6  0.612801D-01
      7 -0.462527D-02  0.585593D-01
      8  0.255083D-02 -0.417915D-02  0.731826D-01
      9  0.266560D-02  0.168599D-01 -0.660453D-02  0.427977D-01
     10  0.199685D-01  0.773211D-03  0.778820D-02 -0.316401D-02  0.654765D-01
     11  0.250234D-02  0.251345D-03 -0.427228D-02  0.207733D-02  0.115445D-03
     12 -0.134543D-01  0.417067D-02  0.536444D-02 -0.509672D-02 -0.165687D-04
     13  0.355091D-02 -0.780626D-03  0.164082D-02  0.125268D-03 -0.843269D-02
     14 -0.269264D-02  0.116405D-02 -0.433949D-03 -0.426300D-03  0.197439D-01
     15 -0.354607D-02  0.153741D-02  0.137253D-02 -0.458862D-02  0.597462D-02
     16 -0.183901D-01 -0.729629D-02  0.104182D-01  0.125809D-03 -0.544038D-03
     17  0.493936D-03  0.125972D-01 -0.128982D-01 -0.848404D-02  0.920305D-05
     18 -0.187199D-01  0.132958D-02 -0.758676D-02 -0.404252D-02 -0.116122D-04
     19  0.534552D-02 -0.611265D-02 -0.278675D-02 -0.279586D-02 -0.874463D-02
     20 -0.166919D-01  0.320353D-02  0.200931D-02  0.408508D-02 -0.199744D-01
     21 -0.184436D-01 -0.227602D-02 -0.139690D-02 -0.700063D-02 -0.598128D-02
     22 -0.947977D-03 -0.427001D-02 -0.731260D-02  0.926907D-03 -0.207566D-01
     23  0.202105D-02 -0.777943D-02 -0.406902D-01  0.174644D-01  0.154479D-02
     24 -0.223548D-02 -0.114698D-02  0.146436D-01 -0.693747D-02 -0.199523D-01
     25  0.126189D-02 -0.278691D-01  0.132679D-02  0.780015D-03  0.711435D-03
     26  0.146609D-01 -0.112535D-02 -0.446208D-02  0.247270D-02 -0.782889D-02
     27 -0.695413D-02 -0.753270D-03  0.247871D-02  0.232268D-02  0.318544D-02
               11            12            13            14            15 
     11  0.801073D-01
     12 -0.981187D-02  0.422472D-01
     13  0.163474D-01  0.428186D-02  0.597630D-01
     14 -0.312215D-01 -0.439298D-02  0.115110D-02  0.725374D-01
     15  0.125851D-02  0.473070D-03 -0.124478D-01  0.142248D-01  0.429319D-01
     16  0.980311D-05  0.176827D-04  0.912738D-03  0.408733D-02  0.595959D-02
     17  0.131969D-02  0.357510D-02  0.117829D-02 -0.268970D-02  0.271292D-03
     18 -0.287984D-02 -0.285529D-02 -0.240830D-02 -0.719395D-03 -0.550738D-02
     19 -0.165824D-01 -0.434296D-02 -0.299698D-01 -0.853432D-03 -0.379015D-02
     20 -0.310087D-01 -0.441989D-02  0.115062D-02  0.240027D-02 -0.342865D-02
     21  0.125722D-02  0.468072D-03  0.370644D-02 -0.345027D-02 -0.207069D-02
     22  0.221314D-03 -0.168970D-01 -0.381121D-02 -0.705724D-02 -0.482739D-02
     23 -0.369193D-02  0.257483D-02 -0.985258D-02 -0.123449D-01 -0.167312D-01
     24  0.265489D-02 -0.134785D-01 -0.546644D-02 -0.166696D-01 -0.184351D-01
     25 -0.293997D-03 -0.412295D-02 -0.611965D-02 -0.314782D-02  0.226282D-02
     26 -0.420979D-02  0.538591D-02  0.284921D-02  0.201202D-02 -0.141711D-02
     27  0.204977D-02 -0.509591D-02  0.282758D-02  0.405452D-02 -0.700042D-02
               16            17            18            19            20 
     16  0.517944D-01
     17 -0.323868D-04  0.361543D-01
     18  0.766096D-04  0.166905D-01  0.605248D-01
     19  0.869906D-03 -0.121350D-02  0.240955D-02  0.597397D-01
     20 -0.411956D-02 -0.264858D-02 -0.740944D-03 -0.101813D-02  0.726376D-01
     21 -0.594994D-02  0.322968D-03 -0.550952D-02  0.126092D-01  0.141531D-01
     22 -0.190464D-01 -0.510780D-02  0.173225D-01 -0.610566D-02 -0.332365D-03
     23 -0.489218D-02 -0.270203D-02  0.846446D-03  0.240587D-02 -0.461700D-02
     24  0.183925D-01  0.339249D-03 -0.186763D-01 -0.357192D-02 -0.266339D-02
     25 -0.749863D-02 -0.126737D-01 -0.140282D-02 -0.787832D-03 -0.114610D-02
     26 -0.104865D-01 -0.127716D-01 -0.759763D-02 -0.162616D-02 -0.409126D-03
     27 -0.207984D-03 -0.851715D-02 -0.404622D-02 -0.122981D-03 -0.452776D-03
               21            22            23            24            25 
     21  0.428911D-01
     22  0.349783D-03  0.632439D-01
     23 -0.154365D-02  0.229727D-01  0.666898D-01
     24 -0.355156D-02  0.535167D-02 -0.247951D-02  0.612479D-01
     25 -0.152453D-02 -0.321730D-02 -0.298610D-02  0.463468D-02  0.586473D-01
     26  0.135402D-02  0.230353D-03 -0.218016D-02  0.252279D-02  0.431822D-02
     27 -0.450818D-02 -0.218112D-02 -0.242457D-04  0.266153D-02 -0.168937D-01
               26            27 
     26  0.731511D-01
     27 -0.642463D-02  0.427414D-01
 Leave Link  716 at Thu Mar  8 08:37:46 2018, MaxMem=   536870912 cpu:         0.1
 (Enter /share/apps//mg09/l103.exe)

 GradGradGradGradGradGradGradGradGradGradGradGradGradGradGradGradGradGrad
 Berny optimization.
 Search for a local minimum.
 Step number   1 out of a maximum of    2
 All quantities printed in internal units (Hartrees-Bohrs-Radians)
 Second derivative matrix not updated -- analytic derivatives used.
 ITU=  0
     Eigenvalues ---    0.00467   0.00592   0.03130   0.03748   0.03920
     Eigenvalues ---    0.05377   0.05502   0.05843   0.06134   0.06281
     Eigenvalues ---    0.06714   0.06942   0.07455   0.08391   0.10246
     Eigenvalues ---    0.10349   0.12522   0.12525   0.13177   0.14483
     Eigenvalues ---    0.14730
 Angle between quadratic step and forces=  51.88 degrees.
 Linear search not attempted -- first point.
 TrRot=  0.000015 -0.000032  0.000006  0.000001  0.000014  0.000001
 Variable       Old X    -DE/DX   Delta X   Delta X   Delta X     New X
                                 (Linear)    (Quad)   (Total)
    X1        0.02082   0.00000   0.00000  -0.00167  -0.00163   0.01919
    Y1        4.94461   0.00010   0.00000   0.00183   0.00180   4.94641
    Z1        2.31292  -0.00005   0.00000  -0.00008  -0.00008   2.31284
    X2        3.95090   0.00001   0.00000   0.00147   0.00149   3.95239
    Y2       -2.81798   0.00004   0.00000   0.00119   0.00117  -2.81681
    Z2        0.11117  -0.00006   0.00000  -0.00066  -0.00071   0.11046
    X3       -2.94724   0.00013   0.00000   0.00293   0.00292  -2.94432
    Y3        2.41714  -0.00004   0.00000   0.00036   0.00032   2.41746
    Z3       -1.83364   0.00007   0.00000  -0.00167  -0.00162  -1.83527
    X4       -0.01586   0.00000   0.00000  -0.00013  -0.00006  -0.01592
    Y4       -3.52507  -0.00004   0.00000  -0.00132  -0.00135  -3.52641
    Z4        3.65725   0.00003   0.00000  -0.00222  -0.00221   3.65504
    X5       -2.54584   0.00007   0.00000   0.00233   0.00240  -2.54344
    Y5        0.64808   0.00001   0.00000  -0.00097  -0.00101   0.64706
    Z5        4.05890   0.00003   0.00000   0.00261   0.00265   4.06155
    X6       -0.00744  -0.00001   0.00000  -0.00031  -0.00035  -0.00779
    Y6       -2.23490  -0.00009   0.00000  -0.00430  -0.00433  -2.23923
    Z6       -3.93886  -0.00006   0.00000   0.00080   0.00080  -3.93805
    X7        2.54675  -0.00007   0.00000  -0.00115  -0.00108   2.54567
    Y7        0.62591   0.00002   0.00000   0.00041   0.00038   0.62629
    Z7        4.06321   0.00001   0.00000   0.00001  -0.00002   4.06319
    X8       -3.97380  -0.00001   0.00000  -0.00183  -0.00181  -3.97561
    Y8       -2.78683   0.00005   0.00000   0.00279   0.00275  -2.78408
    Z8        0.10780  -0.00006   0.00000  -0.00036  -0.00030   0.10750
    X9        2.96728  -0.00013   0.00000  -0.00186  -0.00188   2.96540
    Y9        2.39289  -0.00004   0.00000   0.00030   0.00027   2.39316
    Z9       -1.83424   0.00010   0.00000   0.00152   0.00148  -1.83276
         Item               Value     Threshold  Converged?
 Maximum Force            0.000135     0.000450     YES
 RMS     Force            0.000062     0.000300     YES
 Maximum Displacement     0.004331     0.001800     NO 
 RMS     Displacement     0.001714     0.001200     NO 
 Predicted change in Energy=-8.810965D-07
 GradGradGradGradGradGradGradGradGradGradGradGradGradGradGradGradGradGrad

 Leave Link  103 at Thu Mar  8 08:37:46 2018, MaxMem=   536870912 cpu:         0.1
 (Enter /share/apps//mg09/l9999.exe)
 1\1\GINC-COMPUTE-0-0\Freq\RPBE1PBE\def2TZVP\Bi4Ge3Sn2\RODRIGO\08-Mar-2
 018\0\\#P Geom=AllCheck Guess=TCheck SCRF=Check GenChk RPBE1PBE/def2TZ
 VP Freq\\01Final_coords.xyz_31\\0,1\Sn,0.0110177489,2.616575069,1.2239
 433423\Bi,2.090725559,-1.4912084903,0.0588299267\Bi,-1.5596113134,1.27
 90961264,-0.9703231407\Ge,-0.0083953459,-1.8653844025,1.935333753\Ge,-
 1.3471984757,0.3429470834,2.1478779817\Sn,-0.0039395642,-1.1826567449,
 -2.0843533924\Ge,1.3476846334,0.3312195739,2.1501590261\Bi,-2.10284446
 59,-1.4747251941,0.0570450392\Bi,1.5702192238,1.2662609792,-0.97063853
 57\\Version=ES64L-G09RevD.01\State=1-A\HF=-7517.8213707\RMSD=5.051e-09
 \RMSF=6.169e-05\ZeroPoint=0.0058138\Thermal=0.0233065\Dipole=0.0005689
 ,0.1906903,-0.8127061\DipoleDeriv=-0.0273012,0.0019176,0.0007923,0.002
 0453,0.4483014,0.2129439,0.0006282,0.1479589,0.0301782,0.0666731,-0.09
 56333,-0.0427107,-0.0149516,-0.0633182,-0.0079371,0.0144458,-0.0269077
 ,-0.1789866,0.0704649,-0.0161316,-0.0282052,-0.0225124,-0.051492,-0.06
 29376,-0.0485628,-0.0211845,-0.0185288,-0.1746636,0.0006656,-0.0001906
 ,0.0005098,-0.0410341,-0.0702902,-0.0000199,-0.0108621,0.0689837,-0.01
 13138,-0.0514846,-0.0752881,-0.0663314,-0.1327805,-0.0289483,0.0823085
 ,-0.0817405,0.0046203,-0.0516544,0.0006525,0.000048,0.0005251,0.090153
 2,0.0583915,0.0003073,0.122473,0.285812,-0.0104725,0.0503549,0.0748699
 ,0.0653724,-0.1336553,-0.0296421,-0.0831654,-0.081094,0.0047582,0.0678
 549,0.0946652,0.0427705,0.0137492,-0.0638436,-0.0082495,-0.014526,-0.0
 26777,-0.1785565,0.0704127,0.0149936,0.0279137,0.0215936,-0.0523309,-0
 .0633306,0.0485842,-0.0218662,-0.0182804\Polar=371.6628905,0.0928681,3
 89.5648806,0.0569426,13.9122131,375.136713\PG=C01 [X(Bi4Ge3Sn2)]\NImag
 =0\\0.03794758,0.00019257,0.08040720,0.00004157,0.00958569,0.05033473,
 0.00009074,-0.00029183,-0.00091596,0.06290341,0.00534992,-0.00199562,-
 0.00210978,-0.02293354,0.06702329,-0.00079478,-0.00035137,-0.00059214,
 -0.00536864,-0.00249313,0.06128014,-0.00980995,-0.00713206,-0.01509599
 ,-0.00319389,0.00299986,-0.00462527,0.05855930,-0.00667269,-0.01022714
 ,-0.01082191,-0.00022281,-0.00220800,0.00255083,-0.00417915,0.07318259
 ,-0.01502439,-0.01053268,-0.02011996,0.00216641,-0.00005196,0.00266560
 ,0.01685986,-0.00660453,0.04279765,-0.00768108,0.00001985,-0.00000274,
 -0.02080210,-0.00141807,0.01996848,0.00077321,0.00778820,-0.00316401,0
 .06547647,0.00001731,-0.00334032,0.00089163,-0.00008623,-0.00368245,0.
 00250234,0.00025134,-0.00427228,0.00207733,0.00011544,0.08010729,-0.00
 000636,-0.00073030,-0.00320756,0.01691559,0.00245477,-0.01345435,0.004
 17067,0.00536444,-0.00509672,-0.00001657,-0.00981187,0.04224720,-0.005
 43931,-0.01207609,0.00583052,-0.00612250,-0.00238875,0.00355091,-0.000
 78063,0.00164082,0.00012527,-0.00843269,0.01634738,0.00428186,0.059763
 05,-0.01543365,-0.02565928,0.01007185,0.00034576,-0.00460043,-0.002692
 64,0.00116405,-0.00043395,-0.00042630,0.01974390,-0.03122150,-0.004392
 98,0.00115110,0.07253741,0.00568817,0.00598540,-0.00225666,-0.00035725
 ,-0.00153553,-0.00354607,0.00153741,0.00137253,-0.00458862,0.00597462,
 0.00125851,0.00047307,-0.01244783,0.01422477,0.04293191,-0.00025743,-0
 .00000118,-0.00002414,-0.01893418,0.00501648,-0.01839014,-0.00729629,0
 .01041819,0.00012581,-0.00054404,0.00000980,0.00001768,0.00091274,0.00
 408733,0.00595959,0.05179437,0.00000256,-0.00098407,-0.00469181,0.0052
 4017,-0.00277981,0.00049394,0.01259720,-0.01289824,-0.00848404,0.00000
 920,0.00131969,0.00357510,0.00117829,-0.00268970,0.00027129,-0.0000323
 9,0.03615433,-0.00000056,0.00100486,-0.00116769,-0.01731492,0.00098280
 ,-0.01871995,0.00132958,-0.00758676,-0.00404252,-0.00001161,-0.0028798
 4,-0.00285529,-0.00240830,-0.00071939,-0.00550738,0.00007661,0.0166904
 6,0.06052481,-0.00519825,0.01188806,-0.00574044,-0.00369082,0.00978641
 ,0.00534552,-0.00611265,-0.00278675,-0.00279586,-0.00874463,-0.0165823
 7,-0.00434296,-0.02996980,-0.00085343,-0.00379015,0.00086991,-0.001213
 50,0.00240955,0.05973973,0.01524256,-0.02591380,0.01015936,0.00699388,
 -0.01244991,-0.01669191,0.00320353,0.00200931,0.00408508,-0.01997444,-
 0.03100872,-0.00441989,0.00115062,0.00240027,-0.00342865,-0.00411956,-
 0.00264858,-0.00074094,-0.00101813,0.07263755,-0.00563671,0.00606077,-
 0.00227499,0.00470301,-0.01675728,-0.01844362,-0.00227602,-0.00139690,
 -0.00700063,-0.00598128,0.00125722,0.00046807,0.00370644,-0.00345027,-
 0.00207069,-0.00594994,0.00032297,-0.00550952,0.01260924,0.01415311,0.
 04289113,0.00004878,0.00027616,0.00090262,-0.00608550,-0.00389054,-0.0
 0094798,-0.00427001,-0.00731260,0.00092691,-0.02075658,0.00022131,-0.0
 1689697,-0.00381121,-0.00705724,-0.00482739,-0.01904644,-0.00510780,0.
 01732247,-0.00610566,-0.00033236,0.00034978,0.06324391,-0.00536539,-0.
 00195025,-0.00212810,0.00395230,0.00148659,0.00202105,-0.00777943,-0.0
 4069021,0.01746440,0.00154479,-0.00369193,0.00257483,-0.00985258,-0.01
 234485,-0.01673122,-0.00489218,-0.00270203,0.00084645,0.00240587,-0.00
 461700,-0.00154365,0.02297272,0.06668984,0.00080067,-0.00035510,-0.000
 59498,0.00095815,0.00200703,-0.00223548,-0.00114698,0.01464359,-0.0069
 3747,-0.01995233,0.00265489,-0.01347851,-0.00546644,-0.01666956,-0.018
 43514,0.01839251,0.00033925,-0.01867625,-0.00357192,-0.00266339,-0.003
 55156,0.00535167,-0.00247951,0.06124786,-0.00970108,0.00712452,0.01500
 456,-0.00416516,0.00747823,0.00126189,-0.02786910,0.00132679,0.0007800
 2,0.00071143,-0.00029400,-0.00412295,-0.00611965,-0.00314782,0.0022628
 2,-0.00749863,-0.01267374,-0.00140282,-0.00078783,-0.00114610,-0.00152
 453,-0.00321730,-0.00298610,0.00463468,0.05864732,0.00666680,-0.010336
 73,-0.01095694,0.00700231,-0.04079367,0.01466089,-0.00112535,-0.004462
 08,0.00247270,-0.00782889,-0.00420979,0.00538591,0.00284921,0.00201202
 ,-0.00141711,-0.01048649,-0.01277159,-0.00759763,-0.00162616,-0.000409
 13,0.00135402,0.00023035,-0.00218016,0.00252279,0.00431822,0.07315112,
 0.01493240,-0.01066727,-0.02012076,-0.00078639,0.01750308,-0.00695413,
 -0.00075327,0.00247871,0.00232268,0.00318544,0.00204977,-0.00509591,0.
 00282758,0.00405452,-0.00700042,-0.00020798,-0.00851715,-0.00404622,-0
 .00012298,-0.00045278,-0.00450818,-0.00218112,-0.00002425,0.00266153,-
 0.01689366,-0.00642463,0.04274140\\0.00000353,-0.00009921,0.00004655,-
 0.00001147,-0.00004229,0.00006315,-0.00013492,0.00004459,-0.00006910,0
 .00000205,0.00003521,-0.00002853,-0.00007169,-0.00001010,-0.00002775,0
 .00000706,0.00009400,0.00006343,0.00006913,-0.00001821,-0.00000835,0.0
 0000657,-0.00004816,0.00005709,0.00012973,0.00004418,-0.00009648\\\@


 Happiness is a conscious choice, not an automatic response.
 -- Mildred Barthel
 Job cpu time:       0 days  4 hours 45 minutes 19.5 seconds.
 File lengths (MBytes):  RWF=    299 Int=      0 D2E=      0 Chk=     16 Scr=      1
 Normal termination of Gaussian 09 at Thu Mar  8 08:37:48 2018.
