 Entering Gaussian System, Link 0=/share/apps/mg09/g09
 Initial command:
 /share/apps//mg09/l1.exe "/state/partition1/gauss_tmp/Gau-6140.inp" -scrdir="/state/partition1/gauss_tmp/"
 Entering Link 1 = /share/apps//mg09/l1.exe PID=      6160.
  
 Copyright (c) 1988,1990,1992,1993,1995,1998,2003,2009,2013,
            Gaussian, Inc.  All Rights Reserved.
  
 This is part of the Gaussian(R) 09 program.  It is based on
 the Gaussian(R) 03 system (copyright 2003, Gaussian, Inc.),
 the Gaussian(R) 98 system (copyright 1998, Gaussian, Inc.),
 the Gaussian(R) 94 system (copyright 1995, Gaussian, Inc.),
 the Gaussian 92(TM) system (copyright 1992, Gaussian, Inc.),
 the Gaussian 90(TM) system (copyright 1990, Gaussian, Inc.),
 the Gaussian 88(TM) system (copyright 1988, Gaussian, Inc.),
 the Gaussian 86(TM) system (copyright 1986, Carnegie Mellon
 University), and the Gaussian 82(TM) system (copyright 1983,
 Carnegie Mellon University). Gaussian is a federally registered
 trademark of Gaussian, Inc.
  
 This software contains proprietary and confidential information,
 including trade secrets, belonging to Gaussian, Inc.
  
 This software is provided under written license and may be
 used, copied, transmitted, or stored only in accord with that
 written license.
  
 The following legend is applicable only to US Government
 contracts under FAR:
  
                    RESTRICTED RIGHTS LEGEND
  
 Use, reproduction and disclosure by the US Government is
 subject to restrictions as set forth in subparagraphs (a)
 and (c) of the Commercial Computer Software - Restricted
 Rights clause in FAR 52.227-19.
  
 Gaussian, Inc.
 340 Quinnipiac St., Bldg. 40, Wallingford CT 06492
  
  
 ---------------------------------------------------------------
 Warning -- This program may not be used in any manner that
 competes with the business of Gaussian, Inc. or will provide
 assistance to any competitor of Gaussian, Inc.  The licensee
 of this program is prohibited from giving any competitor of
 Gaussian, Inc. access to this program.  By using this program,
 the user acknowledges that Gaussian, Inc. is engaged in the
 business of creating and licensing software in the field of
 computational chemistry and represents and warrants to the
 licensee that it is not a competitor of Gaussian, Inc. and that
 it will not use this program in any manner prohibited above.
 ---------------------------------------------------------------
  

 Cite this work as:
 Gaussian 09, Revision D.01,
 M. J. Frisch, G. W. Trucks, H. B. Schlegel, G. E. Scuseria, 
 M. A. Robb, J. R. Cheeseman, G. Scalmani, V. Barone, B. Mennucci, 
 G. A. Petersson, H. Nakatsuji, M. Caricato, X. Li, H. P. Hratchian, 
 A. F. Izmaylov, J. Bloino, G. Zheng, J. L. Sonnenberg, M. Hada, 
 M. Ehara, K. Toyota, R. Fukuda, J. Hasegawa, M. Ishida, T. Nakajima, 
 Y. Honda, O. Kitao, H. Nakai, T. Vreven, J. A. Montgomery, Jr., 
 J. E. Peralta, F. Ogliaro, M. Bearpark, J. J. Heyd, E. Brothers, 
 K. N. Kudin, V. N. Staroverov, T. Keith, R. Kobayashi, J. Normand, 
 K. Raghavachari, A. Rendell, J. C. Burant, S. S. Iyengar, J. Tomasi, 
 M. Cossi, N. Rega, J. M. Millam, M. Klene, J. E. Knox, J. B. Cross, 
 V. Bakken, C. Adamo, J. Jaramillo, R. Gomperts, R. E. Stratmann, 
 O. Yazyev, A. J. Austin, R. Cammi, C. Pomelli, J. W. Ochterski, 
 R. L. Martin, K. Morokuma, V. G. Zakrzewski, G. A. Voth, 
 P. Salvador, J. J. Dannenberg, S. Dapprich, A. D. Daniels, 
 O. Farkas, J. B. Foresman, J. V. Ortiz, J. Cioslowski, 
 and D. J. Fox, Gaussian, Inc., Wallingford CT, 2013.
 
 ******************************************
 Gaussian 09:  ES64L-G09RevD.01 24-Apr-2013
                 6-Mar-2018 
 ******************************************
 %NProcShared=4
 Will use up to    4 processors via shared memory.
 %LindaWorkers=compute-0-11
 %chk=Isomer_09.chk
 %NProc=4
 Will use up to    4 processors via shared memory.
 %mem=4GB
 SetLPE:  input flags=" -vv -opt "Tsnet.Node.lindarsharg: ssh" "
 SetLPE:    new flags=" -vv -opt "Tsnet.Node.lindarsharg: ssh"  -nodelist 'compute-0-11.local'"
 Will use up to    1 processors via Linda.
 ----------------------------------------------------------------------
 #p PBE1PBE/Def2TZVP scf=(maxcycle=768) opt=(cartesian,maxcycle=512) fr
 eq
 ----------------------------------------------------------------------
 1/6=512,10=7,14=-1,18=10,26=3,38=1/1,3;
 2/12=2,17=6,18=5,29=2,40=1/2;
 3/5=44,7=101,11=2,16=1,25=1,30=1,71=1,74=-13/1,2,3;
 4//1;
 5/5=2,7=768,38=5/2;
 6/7=2,8=2,9=2,10=2,28=1/1;
 7/7=1,29=1/1,2,3,16;
 1/6=512,10=7,14=-1,18=10,26=3/3(2);
 2/29=1/2;
 99/12=1/99;
 2/29=1/2;
 3/5=44,7=101,11=2,16=1,25=1,30=1,71=1,74=-13/1,2,3;
 4/5=5,16=3,69=1/1;
 5/5=2,7=768,38=5/2;
 7/7=1/1,2,3,16;
 1/6=512,14=-1,18=10,26=3/3(-5);
 2/29=1/2;
 6/7=2,8=2,9=2,10=2,19=2,28=1/1;
 99/9=1,12=1/99;
 Leave Link    1 at Tue Mar  6 11:56:29 2018, MaxMem=   536870912 cpu:         0.7
 (Enter /share/apps//mg09/l101.exe)
 ---------------------
 01Final_coords.xyz_09
 ---------------------
 Symbolic Z-matrix:
 Charge =  0 Multiplicity = 1
 83                    2.05989   0.69633   1.34207 
 32                   -0.53854   0.27442   2.52002 
 83                   -1.05209  -1.99962   0.73832 
 32                   -0.08158   2.54183   0.73901 
 83                   -2.40954   0.70506   0.31705 
 32                   -1.09466   2.08728  -1.81552 
 50                    1.6564    1.33451  -1.63558 
 50                   -0.9154   -0.80996  -2.21005 
 83                    1.61647  -1.60828  -0.63733 
 
 NAtoms=      9 NQM=        9 NQMF=       0 NMMI=      0 NMMIF=      0
                NMic=       0 NMicF=      0.
                    Isotopes and Nuclear Properties:
 (Nuclear quadrupole moments (NQMom) in fm**2, nuclear magnetic moments (NMagM)
  in nuclear magnetons)

  Atom         1           2           3           4           5           6           7           8           9
 IAtWgt=         209          74         209          74         209          74         118         118         209
 AtmWgt= 208.9804000  73.9211788 208.9804000  73.9211788 208.9804000  73.9211788 117.9018000 117.9018000 208.9804000
 NucSpn=           9           0           9           0           9           0           0           0           9
 AtZEff=   0.0000000   0.0000000   0.0000000   0.0000000   0.0000000   0.0000000   0.0000000   0.0000000   0.0000000
 NQMom=  -51.6000000   0.0000000 -51.6000000   0.0000000 -51.6000000   0.0000000   0.0000000   0.0000000 -51.6000000
 NMagM=    4.1106000   0.0000000   4.1106000   0.0000000   4.1106000   0.0000000   0.0000000   0.0000000   4.1106000
 AtZNuc=  83.0000000  32.0000000  83.0000000  32.0000000  83.0000000  32.0000000  50.0000000  50.0000000  83.0000000
 Leave Link  101 at Tue Mar  6 11:56:40 2018, MaxMem=   536870912 cpu:         0.3
 (Enter /share/apps//mg09/l103.exe)

 GradGradGradGradGradGradGradGradGradGradGradGradGradGradGradGradGradGrad
 Berny optimization.
 Initialization pass.
 No Z-matrix variables, so optimization will use Cartesian coordinates.
 Trust Radius=3.00D-01 FncErr=1.00D-07 GrdErr=1.00D-06
 Number of steps in this run=    100 maximum allowed number of steps=    100.
 GradGradGradGradGradGradGradGradGradGradGradGradGradGradGradGradGradGrad

 Leave Link  103 at Tue Mar  6 11:56:55 2018, MaxMem=   536870912 cpu:         0.1
 (Enter /share/apps//mg09/l202.exe)
 ---------------------------------------------------------------------------------------------------
                            Z-MATRIX (ANGSTROMS AND DEGREES)
   CD    Cent   Atom    N1       Length/X        N2       Alpha/Y        N3        Beta/Z          J
 ---------------------------------------------------------------------------------------------------
      1      1  Bi       0   2.059892          0.696333          1.342066
      2      2  Ge       0  -0.538537          0.274421          2.520021
      3      3  Bi       0  -1.052089         -1.999624          0.738321
      4      4  Ge       0  -0.081575          2.541825          0.739009
      5      5  Bi       0  -2.409541          0.705056          0.317051
      6      6  Ge       0  -1.094663          2.087276         -1.815519
      7      7  Sn       0   1.656403          1.334513         -1.635575
      8      8  Sn       0  -0.915404         -0.809959         -2.210047
      9      9  Bi       0   1.616471         -1.608277         -0.637332
 ---------------------------------------------------------------------------------------------------
                         Z-Matrix orientation:                         
 ---------------------------------------------------------------------
 Center     Atomic      Atomic             Coordinates (Angstroms)
 Number     Number       Type             X           Y           Z
 ---------------------------------------------------------------------
      1         83           0        2.059892    0.696333    1.342066
      2         32           0       -0.538537    0.274421    2.520021
      3         83           0       -1.052089   -1.999624    0.738321
      4         32           0       -0.081575    2.541825    0.739009
      5         83           0       -2.409541    0.705056    0.317051
      6         32           0       -1.094663    2.087276   -1.815519
      7         50           0        1.656403    1.334513   -1.635575
      8         50           0       -0.915404   -0.809959   -2.210047
      9         83           0        1.616471   -1.608277   -0.637332
 ---------------------------------------------------------------------
                    Distance matrix (angstroms):
                    1          2          3          4          5
     1  Bi   0.000000
     2  Ge   2.883994   0.000000
     3  Bi   4.161384   2.934190   0.000000
     4  Ge   2.890571   2.919236   4.643991   0.000000
     5  Bi   4.585473   2.922187   3.055395   2.995195   0.000000
     6  Ge   4.675070   4.732085   4.819405   2.785422   2.861344
     7  Sn   3.071876   4.817731   4.907930   3.180695   4.554214
     8  Sn   4.872249   4.867387   3.182273   4.541658   3.303625
     9  Bi   3.070157   4.261161   3.027670   4.690525   4.740372
                    6          7          8          9
     6  Ge   0.000000
     7  Sn   2.857866   0.000000
     8  Sn   2.929464   3.397495   0.000000
     9  Bi   4.732387   3.107748   3.085634   0.000000
 Stoichiometry    Bi4Ge3Sn2
 Framework group  C1[X(Bi4Ge3Sn2)]
 Deg. of freedom    21
 Full point group                 C1      NOp   1
 Largest Abelian subgroup         C1      NOp   1
 Largest concise Abelian subgroup C1      NOp   1
                         Standard orientation:                         
 ---------------------------------------------------------------------
 Center     Atomic      Atomic             Coordinates (Angstroms)
 Number     Number       Type             X           Y           Z
 ---------------------------------------------------------------------
      1         83           0        2.059892   -0.696334   -1.342066
      2         32           0       -0.538537   -0.274421   -2.520021
      3         83           0       -1.052089    1.999624   -0.738321
      4         32           0       -0.081575   -2.541825   -0.739009
      5         83           0       -2.409541   -0.705056   -0.317051
      6         32           0       -1.094663   -2.087276    1.815519
      7         50           0        1.656403   -1.334513    1.635575
      8         50           0       -0.915404    0.809959    2.210047
      9         83           0        1.616471    1.608277    0.637332
 ---------------------------------------------------------------------
 Rotational constants (GHZ):      0.1028572      0.0894394      0.0830754
 Leave Link  202 at Tue Mar  6 11:56:57 2018, MaxMem=   536870912 cpu:         0.0
 (Enter /share/apps//mg09/l301.exe)
 Standard basis: def2TZVP (5D, 7F)
 Ernie: Thresh=  0.10000D-02 Tol=  0.10000D-05 Strict=F.
 There are   519 symmetry adapted cartesian basis functions of A   symmetry.
 There are   444 symmetry adapted basis functions of A   symmetry.
   444 basis functions,   963 primitive gaussians,   519 cartesian basis functions
   116 alpha electrons      116 beta electrons
       nuclear repulsion energy      3543.5185688946 Hartrees.
 IExCor= 1009 DFT=T Ex+Corr=PBE1PBE ExCW=0 ScaHFX=  0.250000
 ScaDFX=  0.750000  0.750000  1.000000  1.000000 ScalE2=  1.000000  1.000000
 IRadAn=      0 IRanWt=     -1 IRanGd=            0 ICorTp=0 IEmpDi=  4
 NAtoms=    9 NActive=    9 NUniq=    9 SFac= 1.00D+00 NAtFMM=   60 NAOKFM=F Big=F
 Integral buffers will be    131072 words long.
 Raffenetti 2 integral format.
 Two-electron integral symmetry is turned on.
 Leave Link  301 at Tue Mar  6 11:57:11 2018, MaxMem=   536870912 cpu:         0.3
 (Enter /share/apps//mg09/l302.exe)
 NPDir=0 NMtPBC=     1 NCelOv=     1 NCel=       1 NClECP=     1 NCelD=      1
         NCelK=      1 NCelE2=     1 NClLst=     1 CellRange=     0.0.
 One-electron integrals computed using PRISM.
   1 Symmetry operations used in ECPInt.
 ECPInt:  NShTT=   10440 NPrTT=   41973 LenC2=    9674 LenP2D=   27429.
 LDataN:  DoStor=T MaxTD1= 8 Len=  415
 NBasis=   444 RedAO= T EigKep=  1.59D-03  NBF=   444
 NBsUse=   444 1.00D-06 EigRej= -1.00D+00 NBFU=   444
 Precomputing XC quadrature grid using
 IXCGrd= 4 IRadAn=           0 IRanWt=          -1 IRanGd=           0 AccXCQ= 0.00D+00.
 Defaulting to unpruned grid for atomic number  83.
 Defaulting to unpruned grid for atomic number  50.
 Defaulting to unpruned grid for atomic number  83.
 Generated NRdTot=       0 NPtTot=           0 NUsed=           0 NTot=          32
 NSgBfM=   501   501   501   501   504 MxSgAt=     9 MxSgA2=     9.
 Leave Link  302 at Tue Mar  6 11:57:31 2018, MaxMem=   536870912 cpu:        40.1
 (Enter /share/apps//mg09/l303.exe)
 DipDrv:  MaxL=1.
 Leave Link  303 at Tue Mar  6 11:57:46 2018, MaxMem=   536870912 cpu:         0.3
 (Enter /share/apps//mg09/l401.exe)
 ExpMin= 4.62D-02 ExpMax= 4.66D+05 ExpMxC= 4.50D+03 IAcc=2 IRadAn=         4 AccDes= 0.00D+00
 Harris functional with IExCor= 1009 and IRadAn=       4 diagonalized for initial guess.
 HarFok:  IExCor= 1009 AccDes= 0.00D+00 IRadAn=         4 IDoV= 1 UseB2=F ITyADJ=14
 ICtDFT=  3500011 ScaDFX=  1.000000  1.000000  1.000000  1.000000
 Defaulting to unpruned grid for atomic number  83.
 Defaulting to unpruned grid for atomic number  83.
 Defaulting to unpruned grid for atomic number  83.
 Defaulting to unpruned grid for atomic number  83.
 FoFCou: FMM=F IPFlag=           0 FMFlag=      100000 FMFlg1=           0
         NFxFlg=           0 DoJE=T BraDBF=F KetDBF=T FulRan=T
         wScrn=  0.000000 ICntrl=     500 IOpCl=  0 I1Cent=   200000004 NGrid=           0
         NMat0=    1 NMatS0=      1 NMatT0=    0 NMatD0=    1 NMtDS0=    0 NMtDT0=    0
 Petite list used in FoFCou.
 Harris En= -7518.61086432386    
 JPrj=0 DoOrth=F DoCkMO=F.
 Leave Link  401 at Tue Mar  6 11:57:57 2018, MaxMem=   536870912 cpu:        12.7
 (Enter /share/apps//mg09/l502.exe)
 Closed shell SCF:
 Using DIIS extrapolation, IDIIS=  1040.
 Integral symmetry usage will be decided dynamically.
 IVT=     1410107 IEndB=     1410107 NGot=   536870912 MDV=   536322046
 LenX=   536322046 LenY=   536052166
 Requested convergence on RMS density matrix=1.00D-08 within 768 cycles.
 Requested convergence on MAX density matrix=1.00D-06.
 Requested convergence on             energy=1.00D-06.
 No special actions if energy rises.
 Fock matrices will be formed incrementally for  20 cycles.

 Cycle   1  Pass 1  IDiag  1:
 FoFJK:  IHMeth= 1 ICntrl=       0 DoSepK=F KAlg= 0 I1Cent=   0 FoldK=F
 IRaf= 880000000 NMat=   1 IRICut=       1 DoRegI=T DoRafI=F ISym2E= 0.
 FoFCou: FMM=F IPFlag=           0 FMFlag=      100000 FMFlg1=           0
         NFxFlg=           0 DoJE=F BraDBF=F KetDBF=F FulRan=T
         wScrn=  0.000000 ICntrl=       0 IOpCl=  0 I1Cent=           0 NGrid=           0
         NMat0=    1 NMatS0=      1 NMatT0=    0 NMatD0=    1 NMtDS0=    0 NMtDT0=    0
 Symmetry not used in FoFCou.
 Defaulting to unpruned grid for atomic number  83.
 Defaulting to unpruned grid for atomic number  83.
 Defaulting to unpruned grid for atomic number  83.
 Defaulting to unpruned grid for atomic number  83.
 E= -7517.24429620180    
 DIIS: error= 2.61D-02 at cycle   1 NSaved=   1.
 NSaved= 1 IEnMin= 1 EnMin= -7517.24429620180     IErMin= 1 ErrMin= 2.61D-02
 ErrMax= 2.61D-02  0.00D+00 EMaxC= 1.00D-01 BMatC= 1.46D+00 BMatP= 1.46D+00
 IDIUse=3 WtCom= 7.39D-01 WtEn= 2.61D-01
 Coeff-Com:  0.100D+01
 Coeff-En:   0.100D+01
 Coeff:      0.100D+01
 Gap=     0.123 Goal=   None    Shift=    0.000
 GapD=    0.123 DampG=1.000 DampE=0.500 DampFc=0.5000 IDamp=-1.
 Damping current iteration by 5.00D-01
 RMSDP=5.43D-03 MaxDP=2.36D-01              OVMax= 7.51D-01

 Cycle   2  Pass 1  IDiag  1:
 RMSU=  2.71D-03    CP:  1.01D+00
 E= -7517.06442665232     Delta-E=        0.179869549476 Rises=F Damp=T
 DIIS: error= 1.40D-02 at cycle   2 NSaved=   2.
 NSaved= 2 IEnMin= 1 EnMin= -7517.24429620180     IErMin= 2 ErrMin= 1.40D-02
 ErrMax= 1.40D-02  0.00D+00 EMaxC= 1.00D-01 BMatC= 2.96D-01 BMatP= 1.46D+00
 IDIUse=3 WtCom= 8.60D-01 WtEn= 1.40D-01
 Coeff-Com:  0.157D+00 0.843D+00
 Coeff-En:   0.598D+00 0.402D+00
 Coeff:      0.219D+00 0.781D+00
 Gap=     0.057 Goal=   None    Shift=    0.000
 RMSDP=4.04D-03 MaxDP=1.68D-01 DE= 1.80D-01 OVMax= 6.99D-01

 Cycle   3  Pass 1  IDiag  1:
 RMSU=  3.27D-03    CP:  1.01D+00  1.28D-01
 E= -7515.41924123319     Delta-E=        1.645185419131 Rises=F Damp=F
 DIIS: error= 3.88D-02 at cycle   3 NSaved=   3.
 NSaved= 3 IEnMin= 1 EnMin= -7517.24429620180     IErMin= 2 ErrMin= 1.40D-02
 ErrMax= 3.88D-02  0.00D+00 EMaxC= 1.00D-01 BMatC= 1.84D+00 BMatP= 2.96D-01
 IDIUse=2 WtCom= 0.00D+00 WtEn= 1.00D+00
 EnCoef did    12 forward-backward iterations
 Coeff-En:   0.510D+00 0.437D+00 0.531D-01
 Coeff:      0.510D+00 0.437D+00 0.531D-01
 Gap=     0.158 Goal=   None    Shift=    0.000
 RMSDP=3.38D-03 MaxDP=1.17D-01 DE= 1.65D+00 OVMax= 4.22D-01

 Cycle   4  Pass 1  IDiag  1:
 RMSU=  1.50D-03    CP:  1.01D+00  8.23D-01  2.75D-01
 E= -7517.71002911701     Delta-E=       -2.290787883823 Rises=F Damp=F
 DIIS: error= 8.62D-03 at cycle   4 NSaved=   4.
 NSaved= 4 IEnMin= 4 EnMin= -7517.71002911701     IErMin= 4 ErrMin= 8.62D-03
 ErrMax= 8.62D-03  0.00D+00 EMaxC= 1.00D-01 BMatC= 2.56D-01 BMatP= 2.96D-01
 IDIUse=3 WtCom= 9.14D-01 WtEn= 8.62D-02
 Coeff-Com:  0.319D+00-0.598D-01-0.643D-01 0.805D+00
 Coeff-En:   0.106D+00 0.000D+00 0.000D+00 0.894D+00
 Coeff:      0.301D+00-0.547D-01-0.587D-01 0.813D+00
 Gap=     0.119 Goal=   None    Shift=    0.000
 RMSDP=1.24D-03 MaxDP=6.24D-02 DE=-2.29D+00 OVMax= 9.66D-02

 Cycle   5  Pass 1  IDiag  1:
 RMSU=  6.32D-04    CP:  1.00D+00  6.18D-01  4.74D-02  6.69D-01
 E= -7517.77161071082     Delta-E=       -0.061581593809 Rises=F Damp=F
 DIIS: error= 4.40D-03 at cycle   5 NSaved=   5.
 NSaved= 5 IEnMin= 5 EnMin= -7517.77161071082     IErMin= 5 ErrMin= 4.40D-03
 ErrMax= 4.40D-03  0.00D+00 EMaxC= 1.00D-01 BMatC= 5.13D-02 BMatP= 2.56D-01
 IDIUse=3 WtCom= 9.56D-01 WtEn= 4.40D-02
 Coeff-Com:  0.135D+00-0.739D-01-0.533D-02 0.440D+00 0.504D+00
 Coeff-En:   0.000D+00 0.000D+00 0.000D+00 0.284D+00 0.716D+00
 Coeff:      0.129D+00-0.707D-01-0.509D-02 0.433D+00 0.514D+00
 Gap=     0.129 Goal=   None    Shift=    0.000
 RMSDP=6.69D-04 MaxDP=3.31D-02 DE=-6.16D-02 OVMax= 6.63D-02

 Cycle   6  Pass 1  IDiag  1:
 RMSU=  3.60D-04    CP:  1.00D+00  5.78D-01  1.45D-01  7.58D-01  3.38D-01
 E= -7517.81193735990     Delta-E=       -0.040326649076 Rises=F Damp=F
 DIIS: error= 2.67D-03 at cycle   6 NSaved=   6.
 NSaved= 6 IEnMin= 6 EnMin= -7517.81193735990     IErMin= 6 ErrMin= 2.67D-03
 ErrMax= 2.67D-03  0.00D+00 EMaxC= 1.00D-01 BMatC= 9.20D-03 BMatP= 5.13D-02
 IDIUse=3 WtCom= 9.73D-01 WtEn= 2.67D-02
 Coeff-Com:  0.391D-01-0.585D-01 0.179D-02 0.174D+00 0.351D+00 0.492D+00
 Coeff-En:   0.000D+00 0.000D+00 0.000D+00 0.000D+00 0.164D+00 0.836D+00
 Coeff:      0.381D-01-0.569D-01 0.174D-02 0.169D+00 0.346D+00 0.501D+00
 Gap=     0.124 Goal=   None    Shift=    0.000
 RMSDP=2.51D-04 MaxDP=1.27D-02 DE=-4.03D-02 OVMax= 2.23D-02

 Cycle   7  Pass 1  IDiag  1:
 RMSU=  1.05D-04    CP:  1.00D+00  5.84D-01  1.24D-01  7.36D-01  5.45D-01
                    CP:  5.55D-01
 E= -7517.81817697431     Delta-E=       -0.006239614417 Rises=F Damp=F
 DIIS: error= 7.74D-04 at cycle   7 NSaved=   7.
 NSaved= 7 IEnMin= 7 EnMin= -7517.81817697431     IErMin= 7 ErrMin= 7.74D-04
 ErrMax= 7.74D-04  0.00D+00 EMaxC= 1.00D-01 BMatC= 7.97D-04 BMatP= 9.20D-03
 IDIUse=3 WtCom= 9.92D-01 WtEn= 7.74D-03
 Coeff-Com:  0.195D-01-0.354D-01 0.214D-02 0.842D-01 0.171D+00 0.308D+00
 Coeff-Com:  0.451D+00
 Coeff-En:   0.000D+00 0.000D+00 0.000D+00 0.000D+00 0.000D+00 0.121D+00
 Coeff-En:   0.879D+00
 Coeff:      0.193D-01-0.351D-01 0.212D-02 0.835D-01 0.169D+00 0.306D+00
 Coeff:      0.454D+00
 Gap=     0.125 Goal=   None    Shift=    0.000
 RMSDP=1.07D-04 MaxDP=4.65D-03 DE=-6.24D-03 OVMax= 1.14D-02

 Cycle   8  Pass 1  IDiag  1:
 RMSU=  6.03D-05    CP:  1.00D+00  5.83D-01  1.31D-01  7.42D-01  5.21D-01
                    CP:  6.14D-01  2.32D-01
 E= -7517.81872149088     Delta-E=       -0.000544516566 Rises=F Damp=F
 DIIS: error= 5.37D-04 at cycle   8 NSaved=   8.
 NSaved= 8 IEnMin= 8 EnMin= -7517.81872149088     IErMin= 8 ErrMin= 5.37D-04
 ErrMax= 5.37D-04  0.00D+00 EMaxC= 1.00D-01 BMatC= 3.42D-04 BMatP= 7.97D-04
 IDIUse=3 WtCom= 9.95D-01 WtEn= 5.37D-03
 Coeff-Com:  0.102D-01-0.201D-01 0.189D-02 0.392D-01 0.731D-01 0.168D+00
 Coeff-Com:  0.384D+00 0.344D+00
 Coeff-En:   0.000D+00 0.000D+00 0.000D+00 0.000D+00 0.000D+00 0.000D+00
 Coeff-En:   0.332D+00 0.668D+00
 Coeff:      0.102D-01-0.199D-01 0.188D-02 0.390D-01 0.727D-01 0.167D+00
 Coeff:      0.384D+00 0.345D+00
 Gap=     0.124 Goal=   None    Shift=    0.000
 RMSDP=5.25D-05 MaxDP=2.05D-03 DE=-5.45D-04 OVMax= 5.67D-03

 Cycle   9  Pass 1  IDiag  1:
 RMSU=  1.74D-05    CP:  1.00D+00  5.82D-01  1.34D-01  7.44D-01  5.17D-01
                    CP:  6.00D-01  5.73D-01  4.82D-01
 E= -7517.81918387619     Delta-E=       -0.000462385309 Rises=F Damp=F
 DIIS: error= 6.48D-05 at cycle   9 NSaved=   9.
 NSaved= 9 IEnMin= 9 EnMin= -7517.81918387619     IErMin= 9 ErrMin= 6.48D-05
 ErrMax= 6.48D-05  0.00D+00 EMaxC= 1.00D-01 BMatC= 9.60D-06 BMatP= 3.42D-04
 IDIUse=1 WtCom= 1.00D+00 WtEn= 0.00D+00
 Coeff-Com:  0.147D-02-0.320D-02 0.257D-03 0.113D-02-0.726D-02 0.623D-02
 Coeff-Com:  0.573D-01 0.132D+00 0.812D+00
 Coeff:      0.147D-02-0.320D-02 0.257D-03 0.113D-02-0.726D-02 0.623D-02
 Coeff:      0.573D-01 0.132D+00 0.812D+00
 Gap=     0.124 Goal=   None    Shift=    0.000
 RMSDP=1.09D-05 MaxDP=6.86D-04 DE=-4.62D-04 OVMax= 1.08D-03

 Cycle  10  Pass 1  IDiag  1:
 RMSU=  7.02D-06    CP:  1.00D+00  5.80D-01  1.35D-01  7.43D-01  5.12D-01
                    CP:  6.10D-01  5.63D-01  5.38D-01  9.43D-01
 E= -7517.81919414737     Delta-E=       -0.000010271178 Rises=F Damp=F
 DIIS: error= 3.11D-05 at cycle  10 NSaved=  10.
 NSaved=10 IEnMin=10 EnMin= -7517.81919414737     IErMin=10 ErrMin= 3.11D-05
 ErrMax= 3.11D-05  0.00D+00 EMaxC= 1.00D-01 BMatC= 1.81D-06 BMatP= 9.60D-06
 IDIUse=1 WtCom= 1.00D+00 WtEn= 0.00D+00
 Coeff-Com:  0.430D-04-0.195D-03 0.234D-03-0.232D-02-0.916D-02-0.889D-02
 Coeff-Com:  0.453D-02 0.515D-01 0.480D+00 0.484D+00
 Coeff:      0.430D-04-0.195D-03 0.234D-03-0.232D-02-0.916D-02-0.889D-02
 Coeff:      0.453D-02 0.515D-01 0.480D+00 0.484D+00
 Gap=     0.124 Goal=   None    Shift=    0.000
 RMSDP=4.39D-06 MaxDP=2.90D-04 DE=-1.03D-05 OVMax= 5.42D-04

 Cycle  11  Pass 1  IDiag  1:
 RMSU=  2.71D-06    CP:  1.00D+00  5.80D-01  1.35D-01  7.43D-01  5.13D-01
                    CP:  6.09D-01  5.63D-01  5.45D-01  9.99D-01  5.54D-01
 E= -7517.81919572820     Delta-E=       -0.000001580835 Rises=F Damp=F
 DIIS: error= 1.60D-05 at cycle  11 NSaved=  11.
 NSaved=11 IEnMin=11 EnMin= -7517.81919572820     IErMin=11 ErrMin= 1.60D-05
 ErrMax= 1.60D-05  0.00D+00 EMaxC= 1.00D-01 BMatC= 3.13D-07 BMatP= 1.81D-06
 IDIUse=1 WtCom= 1.00D+00 WtEn= 0.00D+00
 Coeff-Com: -0.291D-04 0.790D-05 0.874D-04-0.131D-02-0.486D-02-0.604D-02
 Coeff-Com: -0.198D-02 0.215D-01 0.237D+00 0.322D+00 0.433D+00
 Coeff:     -0.291D-04 0.790D-05 0.874D-04-0.131D-02-0.486D-02-0.604D-02
 Coeff:     -0.198D-02 0.215D-01 0.237D+00 0.322D+00 0.433D+00
 Gap=     0.124 Goal=   None    Shift=    0.000
 RMSDP=2.09D-06 MaxDP=8.17D-05 DE=-1.58D-06 OVMax= 2.73D-04

 Cycle  12  Pass 1  IDiag  1:
 RMSU=  1.53D-06    CP:  1.00D+00  5.80D-01  1.35D-01  7.43D-01  5.13D-01
                    CP:  6.09D-01  5.63D-01  5.42D-01  9.94D-01  6.13D-01
                    CP:  5.22D-01
 E= -7517.81919591686     Delta-E=       -0.000000188655 Rises=F Damp=F
 DIIS: error= 1.22D-05 at cycle  12 NSaved=  12.
 NSaved=12 IEnMin=12 EnMin= -7517.81919591686     IErMin=12 ErrMin= 1.22D-05
 ErrMax= 1.22D-05  0.00D+00 EMaxC= 1.00D-01 BMatC= 1.36D-07 BMatP= 3.13D-07
 IDIUse=1 WtCom= 1.00D+00 WtEn= 0.00D+00
 Coeff-Com: -0.227D-04 0.289D-04 0.325D-04-0.538D-03-0.195D-02-0.294D-02
 Coeff-Com: -0.238D-02 0.688D-02 0.923D-01 0.167D+00 0.370D+00 0.371D+00
 Coeff:     -0.227D-04 0.289D-04 0.325D-04-0.538D-03-0.195D-02-0.294D-02
 Coeff:     -0.238D-02 0.688D-02 0.923D-01 0.167D+00 0.370D+00 0.371D+00
 Gap=     0.124 Goal=   None    Shift=    0.000
 RMSDP=1.07D-06 MaxDP=6.37D-05 DE=-1.89D-07 OVMax= 1.22D-04

 Cycle  13  Pass 1  IDiag  1:
 RMSU=  4.79D-07    CP:  1.00D+00  5.80D-01  1.35D-01  7.43D-01  5.13D-01
                    CP:  6.09D-01  5.63D-01  5.44D-01  9.95D-01  6.11D-01
                    CP:  6.90D-01  4.66D-01
 E= -7517.81919607933     Delta-E=       -0.000000162472 Rises=F Damp=F
 DIIS: error= 2.09D-06 at cycle  13 NSaved=  13.
 NSaved=13 IEnMin=13 EnMin= -7517.81919607933     IErMin=13 ErrMin= 2.09D-06
 ErrMax= 2.09D-06  0.00D+00 EMaxC= 1.00D-01 BMatC= 6.08D-09 BMatP= 1.36D-07
 IDIUse=1 WtCom= 1.00D+00 WtEn= 0.00D+00
 Coeff-Com: -0.730D-05 0.186D-04 0.402D-05-0.841D-04-0.314D-03-0.691D-03
 Coeff-Com: -0.120D-02-0.152D-03 0.656D-02 0.333D-01 0.116D+00 0.205D+00
 Coeff-Com:  0.641D+00
 Coeff:     -0.730D-05 0.186D-04 0.402D-05-0.841D-04-0.314D-03-0.691D-03
 Coeff:     -0.120D-02-0.152D-03 0.656D-02 0.333D-01 0.116D+00 0.205D+00
 Coeff:      0.641D+00
 Gap=     0.124 Goal=   None    Shift=    0.000
 RMSDP=2.75D-07 MaxDP=1.12D-05 DE=-1.62D-07 OVMax= 3.30D-05

 Cycle  14  Pass 1  IDiag  1:
 RMSU=  1.60D-07    CP:  1.00D+00  5.80D-01  1.35D-01  7.43D-01  5.13D-01
                    CP:  6.09D-01  5.63D-01  5.44D-01  9.97D-01  6.22D-01
                    CP:  6.88D-01  5.69D-01  7.92D-01
 E= -7517.81919608737     Delta-E=       -0.000000008042 Rises=F Damp=F
 DIIS: error= 6.21D-07 at cycle  14 NSaved=  14.
 NSaved=14 IEnMin=14 EnMin= -7517.81919608737     IErMin=14 ErrMin= 6.21D-07
 ErrMax= 6.21D-07  0.00D+00 EMaxC= 1.00D-01 BMatC= 6.07D-10 BMatP= 6.08D-09
 IDIUse=1 WtCom= 1.00D+00 WtEn= 0.00D+00
 Coeff-Com: -0.226D-05 0.900D-05 0.101D-06-0.149D-06-0.212D-05-0.110D-03
 Coeff-Com: -0.474D-03-0.760D-03-0.455D-02 0.301D-02 0.330D-01 0.703D-01
 Coeff-Com:  0.348D+00 0.551D+00
 Coeff:     -0.226D-05 0.900D-05 0.101D-06-0.149D-06-0.212D-05-0.110D-03
 Coeff:     -0.474D-03-0.760D-03-0.455D-02 0.301D-02 0.330D-01 0.703D-01
 Coeff:      0.348D+00 0.551D+00
 Gap=     0.124 Goal=   None    Shift=    0.000
 RMSDP=9.30D-08 MaxDP=5.23D-06 DE=-8.04D-09 OVMax= 8.67D-06

 Cycle  15  Pass 1  IDiag  1:
 RMSU=  5.59D-08    CP:  1.00D+00  5.80D-01  1.35D-01  7.43D-01  5.13D-01
                    CP:  6.09D-01  5.63D-01  5.44D-01  9.97D-01  6.22D-01
                    CP:  6.97D-01  5.66D-01  8.81D-01  6.88D-01
 E= -7517.81919608823     Delta-E=       -0.000000000859 Rises=F Damp=F
 DIIS: error= 2.08D-07 at cycle  15 NSaved=  15.
 NSaved=15 IEnMin=15 EnMin= -7517.81919608823     IErMin=15 ErrMin= 2.08D-07
 ErrMax= 2.08D-07  0.00D+00 EMaxC= 1.00D-01 BMatC= 7.89D-11 BMatP= 6.07D-10
 IDIUse=1 WtCom= 1.00D+00 WtEn= 0.00D+00
 Coeff-Com: -0.847D-06 0.371D-05-0.732D-06 0.100D-04 0.407D-04 0.370D-04
 Coeff-Com: -0.991D-04-0.436D-03-0.335D-02-0.295D-02 0.468D-02 0.142D-01
 Coeff-Com:  0.119D+00 0.313D+00 0.556D+00
 Coeff:     -0.847D-06 0.371D-05-0.732D-06 0.100D-04 0.407D-04 0.370D-04
 Coeff:     -0.991D-04-0.436D-03-0.335D-02-0.295D-02 0.468D-02 0.142D-01
 Coeff:      0.119D+00 0.313D+00 0.556D+00
 Gap=     0.124 Goal=   None    Shift=    0.000
 RMSDP=3.50D-08 MaxDP=1.58D-06 DE=-8.59D-10 OVMax= 3.98D-06

 Cycle  16  Pass 1  IDiag  1:
 RMSU=  2.07D-08    CP:  1.00D+00  5.80D-01  1.35D-01  7.43D-01  5.13D-01
                    CP:  6.09D-01  5.63D-01  5.44D-01  9.97D-01  6.22D-01
                    CP:  7.01D-01  5.66D-01  8.86D-01  7.88D-01  6.89D-01
 E= -7517.81919608784     Delta-E=        0.000000000389 Rises=F Damp=F
 DIIS: error= 7.24D-08 at cycle  16 NSaved=  16.
 NSaved=16 IEnMin=15 EnMin= -7517.81919608823     IErMin=16 ErrMin= 7.24D-08
 ErrMax= 7.24D-08  0.00D+00 EMaxC= 1.00D-01 BMatC= 9.61D-12 BMatP= 7.89D-11
 IDIUse=1 WtCom= 1.00D+00 WtEn= 0.00D+00
 Coeff-Com: -0.257D-06 0.892D-06-0.367D-06 0.664D-05 0.276D-04 0.469D-04
 Coeff-Com:  0.266D-04-0.114D-03-0.121D-02-0.213D-02-0.229D-02-0.133D-02
 Coeff-Com:  0.127D-01 0.866D-01 0.297D+00 0.611D+00
 Coeff:     -0.257D-06 0.892D-06-0.367D-06 0.664D-05 0.276D-04 0.469D-04
 Coeff:      0.266D-04-0.114D-03-0.121D-02-0.213D-02-0.229D-02-0.133D-02
 Coeff:      0.127D-01 0.866D-01 0.297D+00 0.611D+00
 Gap=     0.124 Goal=   None    Shift=    0.000
 RMSDP=1.18D-08 MaxDP=8.40D-07 DE= 3.89D-10 OVMax= 1.73D-06

 Cycle  17  Pass 1  IDiag  1:
 RMSU=  6.04D-09    CP:  1.00D+00  5.80D-01  1.35D-01  7.43D-01  5.13D-01
                    CP:  6.09D-01  5.63D-01  5.44D-01  9.97D-01  6.22D-01
                    CP:  7.02D-01  5.69D-01  8.91D-01  7.90D-01  7.93D-01
                    CP:  7.96D-01
 E= -7517.81919608815     Delta-E=       -0.000000000311 Rises=F Damp=F
 DIIS: error= 1.96D-08 at cycle  17 NSaved=  17.
 NSaved=17 IEnMin=15 EnMin= -7517.81919608823     IErMin=17 ErrMin= 1.96D-08
 ErrMax= 1.96D-08  0.00D+00 EMaxC= 1.00D-01 BMatC= 5.99D-13 BMatP= 9.61D-12
 IDIUse=1 WtCom= 1.00D+00 WtEn= 0.00D+00
 Coeff-Com: -0.869D-07 0.119D-06-0.993D-07 0.219D-05 0.959D-05 0.190D-04
 Coeff-Com:  0.192D-04-0.106D-04-0.249D-03-0.626D-03-0.150D-02-0.208D-02
 Coeff-Com: -0.582D-02 0.106D-01 0.839D-01 0.255D+00 0.660D+00
 Coeff:     -0.869D-07 0.119D-06-0.993D-07 0.219D-05 0.959D-05 0.190D-04
 Coeff:      0.192D-04-0.106D-04-0.249D-03-0.626D-03-0.150D-02-0.208D-02
 Coeff:     -0.582D-02 0.106D-01 0.839D-01 0.255D+00 0.660D+00
 Gap=     0.124 Goal=   None    Shift=    0.000
 RMSDP=3.86D-09 MaxDP=1.74D-07 DE=-3.11D-10 OVMax= 5.45D-07

 SCF Done:  E(RPBE1PBE) =  -7517.81919609     A.U. after   17 cycles
            NFock= 17  Conv=0.39D-08     -V/T= 2.1285
 KE= 6.661964514816D+03 PE=-2.467843755460D+04 EE= 6.955135274802D+03
 Leave Link  502 at Tue Mar  6 12:23:27 2018, MaxMem=   536870912 cpu:      6038.1
 (Enter /share/apps//mg09/l601.exe)
 Copying SCF densities to generalized density rwf, IOpCl= 0 IROHF=0.

 **********************************************************************

            Population analysis using the SCF density.

 **********************************************************************

 Orbital symmetries:
       Occupied  (A) (A) (A) (A) (A) (A) (A) (A) (A) (A) (A) (A)
                 (A) (A) (A) (A) (A) (A) (A) (A) (A) (A) (A) (A)
                 (A) (A) (A) (A) (A) (A) (A) (A) (A) (A) (A) (A)
                 (A) (A) (A) (A) (A) (A) (A) (A) (A) (A) (A) (A)
                 (A) (A) (A) (A) (A) (A) (A) (A) (A) (A) (A) (A)
                 (A) (A) (A) (A) (A) (A) (A) (A) (A) (A) (A) (A)
                 (A) (A) (A) (A) (A) (A) (A) (A) (A) (A) (A) (A)
                 (A) (A) (A) (A) (A) (A) (A) (A) (A) (A) (A) (A)
                 (A) (A) (A) (A) (A) (A) (A) (A) (A) (A) (A) (A)
                 (A) (A) (A) (A) (A) (A) (A) (A)
       Virtual   (A) (A) (A) (A) (A) (A) (A) (A) (A) (A) (A) (A)
                 (A) (A) (A) (A) (A) (A) (A) (A) (A) (A) (A) (A)
                 (A) (A) (A) (A) (A) (A) (A) (A) (A) (A) (A) (A)
                 (A) (A) (A) (A) (A) (A) (A) (A) (A) (A) (A) (A)
                 (A) (A) (A) (A) (A) (A) (A) (A) (A) (A) (A) (A)
                 (A) (A) (A) (A) (A) (A) (A) (A) (A) (A) (A) (A)
                 (A) (A) (A) (A) (A) (A) (A) (A) (A) (A) (A) (A)
                 (A) (A) (A) (A) (A) (A) (A) (A) (A) (A) (A) (A)
                 (A) (A) (A) (A) (A) (A) (A) (A) (A) (A) (A) (A)
                 (A) (A) (A) (A) (A) (A) (A) (A) (A) (A) (A) (A)
                 (A) (A) (A) (A) (A) (A) (A) (A) (A) (A) (A) (A)
                 (A) (A) (A) (A) (A) (A) (A) (A) (A) (A) (A) (A)
                 (A) (A) (A) (A) (A) (A) (A) (A) (A) (A) (A) (A)
                 (A) (A) (A) (A) (A) (A) (A) (A) (A) (A) (A) (A)
                 (A) (A) (A) (A) (A) (A) (A) (A) (A) (A) (A) (A)
                 (A) (A) (A) (A) (A) (A) (A) (A) (A) (A) (A) (A)
                 (A) (A) (A) (A) (A) (A) (A) (A) (A) (A) (A) (A)
                 (A) (A) (A) (A) (A) (A) (A) (A) (A) (A) (A) (A)
                 (A) (A) (A) (A) (A) (A) (A) (A) (A) (A) (A) (A)
                 (A) (A) (A) (A) (A) (A) (A) (A) (A) (A) (A) (A)
                 (A) (A) (A) (A) (A) (A) (A) (A) (A) (A) (A) (A)
                 (A) (A) (A) (A) (A) (A) (A) (A) (A) (A) (A) (A)
                 (A) (A) (A) (A) (A) (A) (A) (A) (A) (A) (A) (A)
                 (A) (A) (A) (A) (A) (A) (A) (A) (A) (A) (A) (A)
                 (A) (A) (A) (A) (A) (A) (A) (A) (A) (A) (A) (A)
                 (A) (A) (A) (A) (A) (A) (A) (A) (A) (A) (A) (A)
                 (A) (A) (A) (A) (A) (A) (A) (A) (A) (A) (A) (A)
                 (A) (A) (A) (A)
 The electronic state is 1-A.
 Alpha  occ. eigenvalues -- -399.09862-399.09476-399.08890 -49.91411 -49.91055
 Alpha  occ. eigenvalues --  -49.90504 -44.39499 -44.39468 -44.39437 -44.39126
 Alpha  occ. eigenvalues --  -44.39117 -44.39082 -44.38585 -44.38564 -44.38518
 Alpha  occ. eigenvalues --   -6.27909  -6.27557  -6.27016  -6.02317  -6.01784
 Alpha  occ. eigenvalues --   -6.01724  -6.01177  -5.13960  -5.13583  -4.43365
 Alpha  occ. eigenvalues --   -4.43260  -4.43155  -4.42976  -4.42934  -4.42815
 Alpha  occ. eigenvalues --   -4.42480  -4.42396  -4.42243  -3.74619  -3.74431
 Alpha  occ. eigenvalues --   -3.74327  -3.74057  -3.74020  -3.73928  -3.73886
 Alpha  occ. eigenvalues --   -3.73810  -3.73629  -3.73506  -3.73267  -3.73167
 Alpha  occ. eigenvalues --   -3.47218  -3.47114  -3.46890  -3.46829  -3.46746
 Alpha  occ. eigenvalues --   -3.46525  -1.22815  -1.22802  -1.22708  -1.22639
 Alpha  occ. eigenvalues --   -1.22615  -1.22440  -1.22420  -1.22349  -1.22280
 Alpha  occ. eigenvalues --   -1.22260  -1.21951  -1.21915  -1.21814  -1.21722
 Alpha  occ. eigenvalues --   -1.21695  -1.08604  -1.08273  -1.08232  -1.08128
 Alpha  occ. eigenvalues --   -1.07984  -1.07924  -1.07806  -1.07755  -1.07700
 Alpha  occ. eigenvalues --   -1.07559  -1.07425  -1.07317  -1.07257  -1.07159
 Alpha  occ. eigenvalues --   -1.07081  -1.07057  -1.06979  -1.06791  -1.06778
 Alpha  occ. eigenvalues --   -1.06705  -1.03415  -1.03401  -1.03224  -1.03138
 Alpha  occ. eigenvalues --   -1.03110  -1.03020  -1.03008  -1.02818  -1.02761
 Alpha  occ. eigenvalues --   -1.02710  -0.66711  -0.62120  -0.59940  -0.56123
 Alpha  occ. eigenvalues --   -0.51088  -0.47356  -0.43673  -0.42068  -0.40853
 Alpha  occ. eigenvalues --   -0.28977  -0.27686  -0.26751  -0.25708  -0.24641
 Alpha  occ. eigenvalues --   -0.24078  -0.23163  -0.22917  -0.22402  -0.20985
 Alpha  occ. eigenvalues --   -0.20203
 Alpha virt. eigenvalues --   -0.07776  -0.07212  -0.06964  -0.06305  -0.06082
 Alpha virt. eigenvalues --   -0.05763  -0.05280  -0.04411  -0.04287  -0.03512
 Alpha virt. eigenvalues --   -0.03397  -0.02061  -0.01999   0.03832   0.05183
 Alpha virt. eigenvalues --    0.05579   0.06244   0.08166   0.08723   0.08841
 Alpha virt. eigenvalues --    0.09154   0.09414   0.09737   0.10055   0.10467
 Alpha virt. eigenvalues --    0.11026   0.11423   0.11653   0.12465   0.12615
 Alpha virt. eigenvalues --    0.13845   0.15945   0.16388   0.16763   0.17398
 Alpha virt. eigenvalues --    0.17617   0.18479   0.19717   0.19888   0.20584
 Alpha virt. eigenvalues --    0.20997   0.21134   0.21753   0.23191   0.23813
 Alpha virt. eigenvalues --    0.24736   0.26181   0.26799   0.28621   0.28757
 Alpha virt. eigenvalues --    0.29435   0.30153   0.30627   0.31081   0.31225
 Alpha virt. eigenvalues --    0.31547   0.31969   0.32188   0.32906   0.33544
 Alpha virt. eigenvalues --    0.34398   0.35149   0.36377   0.36568   0.37037
 Alpha virt. eigenvalues --    0.38548   0.39372   0.40646   0.41491   0.42152
 Alpha virt. eigenvalues --    0.42802   0.43198   0.43531   0.44468   0.45038
 Alpha virt. eigenvalues --    0.45112   0.46211   0.47112   0.47367   0.48109
 Alpha virt. eigenvalues --    0.48818   0.49186   0.50228   0.50437   0.51257
 Alpha virt. eigenvalues --    0.51976   0.53461   0.54058   0.54741   0.55428
 Alpha virt. eigenvalues --    0.56018   0.57722   0.58169   0.58533   0.59716
 Alpha virt. eigenvalues --    0.60618   0.60869   0.61761   0.62488   0.62983
 Alpha virt. eigenvalues --    0.63360   0.64137   0.64779   0.65546   0.66169
 Alpha virt. eigenvalues --    0.66612   0.66992   0.67714   0.68705   0.69000
 Alpha virt. eigenvalues --    0.69743   0.70896   0.71616   0.73535   0.74052
 Alpha virt. eigenvalues --    0.74367   0.75159   0.76889   0.78071   0.78979
 Alpha virt. eigenvalues --    0.79199   0.79949   0.80775   0.81918   0.82374
 Alpha virt. eigenvalues --    0.82995   0.83574   0.84023   0.84927   0.85466
 Alpha virt. eigenvalues --    0.86495   0.87003   0.87446   0.88150   0.88683
 Alpha virt. eigenvalues --    0.90103   0.91388   0.91784   0.92350   0.94257
 Alpha virt. eigenvalues --    0.94329   0.95520   0.96030   0.96916   0.97617
 Alpha virt. eigenvalues --    0.97774   0.98413   0.99160   1.00294   1.00910
 Alpha virt. eigenvalues --    1.01292   1.03265   1.05278   1.06061   1.07395
 Alpha virt. eigenvalues --    1.08456   1.09076   1.10736   1.12300   1.12767
 Alpha virt. eigenvalues --    1.13550   1.14900   1.15781   1.16375   1.17834
 Alpha virt. eigenvalues --    1.18460   1.18658   1.19340   1.19748   1.20005
 Alpha virt. eigenvalues --    1.20554   1.21022   1.21320   1.22107   1.22547
 Alpha virt. eigenvalues --    1.23106   1.23627   1.24012   1.24287   1.24999
 Alpha virt. eigenvalues --    1.25382   1.25790   1.25958   1.26302   1.26755
 Alpha virt. eigenvalues --    1.27991   1.28393   1.29077   1.29514   1.29828
 Alpha virt. eigenvalues --    1.30503   1.31164   1.31783   1.32088   1.33736
 Alpha virt. eigenvalues --    1.34391   1.35783   1.36632   1.37845   1.39037
 Alpha virt. eigenvalues --    1.39464   1.40542   1.41581   1.43335   1.43977
 Alpha virt. eigenvalues --    1.44367   1.45245   1.47070   1.47886   1.48730
 Alpha virt. eigenvalues --    1.49183   1.50410   1.51156   1.51659   1.52705
 Alpha virt. eigenvalues --    1.53287   1.53915   1.55928   1.58773   1.60562
 Alpha virt. eigenvalues --    1.64807   1.67111   1.67826   2.03467   2.05250
 Alpha virt. eigenvalues --    2.08500   2.09560   2.10667   2.14096   2.16376
 Alpha virt. eigenvalues --    2.17783   2.18038   2.19769   2.19978   2.20917
 Alpha virt. eigenvalues --    2.21760   2.22441   2.23684   2.24079   2.25763
 Alpha virt. eigenvalues --    2.27652   2.27777   2.28619   2.31318   2.32117
 Alpha virt. eigenvalues --    2.34970   2.35440   2.36210   2.39061   2.39360
 Alpha virt. eigenvalues --    2.39866   2.41481   2.42093   2.44902   2.46653
 Alpha virt. eigenvalues --    2.50365   2.52038   2.52693   2.53367   2.56051
 Alpha virt. eigenvalues --    2.57150   2.59621   2.60989   2.62333   2.66749
 Alpha virt. eigenvalues --    2.67630   2.69851   2.70557   2.71500   2.74421
 Alpha virt. eigenvalues --    2.75550   2.77954   2.79701   2.80446   2.81078
 Alpha virt. eigenvalues --    2.81731   2.83606   2.87973   2.93695   2.96782
 Alpha virt. eigenvalues --    3.19904   3.27835   3.29657   3.35840   3.39813
 Alpha virt. eigenvalues --    3.40983   3.96482   3.97202   3.99034   3.99750
 Alpha virt. eigenvalues --    4.01252   4.04032   4.06174   4.08527   4.12371
 Alpha virt. eigenvalues --    5.27278   5.33985   5.37346  35.36564  35.40001
 Alpha virt. eigenvalues --   35.41138  35.43657  35.45961  35.46529  35.50443
 Alpha virt. eigenvalues --   35.51246  35.53502  35.54274  35.59705  35.63046
 Alpha virt. eigenvalues --   35.86344  35.93800  36.02320  36.04884  36.19402
 Alpha virt. eigenvalues --   36.22844  36.91812  36.98883  37.01600  37.01787
 Alpha virt. eigenvalues --   37.08736  37.21314 113.56844 113.59722 120.21683
 Alpha virt. eigenvalues --  120.23512 120.25101 120.25324
          Condensed to atoms (all electrons):
               1          2          3          4          5          6
     1  Bi  22.349271   0.202582  -0.026237   0.160505  -0.026053  -0.018058
     2  Ge   0.202582  31.582241   0.177361   0.095835   0.142610  -0.013606
     3  Bi  -0.026237   0.177361  22.399569  -0.021450   0.160924  -0.015217
     4  Ge   0.160505   0.095835  -0.021450  31.525360   0.118856   0.139578
     5  Bi  -0.026053   0.142610   0.160924   0.118856  22.231245   0.170004
     6  Ge  -0.018058  -0.013606  -0.015217   0.139578   0.170004  31.611704
     7  Sn   0.137588  -0.013757  -0.017221   0.080020  -0.020393   0.183669
     8  Sn  -0.018885  -0.015570   0.115274  -0.020422   0.087465   0.171207
     9  Bi   0.178401  -0.018183   0.196367  -0.017314  -0.023599  -0.012137
               7          8          9
     1  Bi   0.137588  -0.018885   0.178401
     2  Ge  -0.013757  -0.015570  -0.018183
     3  Bi  -0.017221   0.115274   0.196367
     4  Ge   0.080020  -0.020422  -0.017314
     5  Bi  -0.020393   0.087465  -0.023599
     6  Ge   0.183669   0.171207  -0.012137
     7  Sn  21.341321   0.070535   0.134196
     8  Sn   0.070535  21.387506   0.150549
     9  Bi   0.134196   0.150549  22.420932
 Mulliken charges:
               1
     1  Bi   0.060886
     2  Ge  -0.139514
     3  Bi   0.030629
     4  Ge  -0.060967
     5  Bi   0.158941
     6  Ge  -0.217145
     7  Sn   0.104043
     8  Sn   0.072341
     9  Bi  -0.009213
 Sum of Mulliken charges =   0.00000
 Mulliken charges with hydrogens summed into heavy atoms:
               1
     1  Bi   0.060886
     2  Ge  -0.139514
     3  Bi   0.030629
     4  Ge  -0.060967
     5  Bi   0.158941
     6  Ge  -0.217145
     7  Sn   0.104043
     8  Sn   0.072341
     9  Bi  -0.009213
 Electronic spatial extent (au):  <R**2>=           6120.7787
 Charge=              0.0000 electrons
 Dipole moment (field-independent basis, Debye):
    X=              0.2026    Y=              1.5383    Z=              0.1514  Tot=              1.5589
 Quadrupole moment (field-independent basis, Debye-Ang):
   XX=           -214.0195   YY=           -219.8696   ZZ=           -221.0352
   XY=             -0.1831   XZ=              0.5645   YZ=             -0.2122
 Traceless Quadrupole moment (field-independent basis, Debye-Ang):
   XX=              4.2886   YY=             -1.5615   ZZ=             -2.7271
   XY=             -0.1831   XZ=              0.5645   YZ=             -0.2122
 Octapole moment (field-independent basis, Debye-Ang**2):
  XXX=              7.7790  YYY=            118.3473  ZZZ=            -46.2956  XYY=             10.6240
  XXY=             34.4414  XXZ=            -24.3434  XZZ=             12.7422  YZZ=             39.6478
  YYZ=            -23.2426  XYZ=              0.4974
 Hexadecapole moment (field-independent basis, Debye-Ang**3):
 XXXX=          -3392.1246 YYYY=          -3189.7325 ZZZZ=          -3058.4313 XXXY=             38.1554
 XXXZ=             -3.2117 YYYX=              5.9990 YYYZ=             17.9685 ZZZX=            -18.1365
 ZZZY=             27.1233 XXYY=          -1104.4526 XXZZ=          -1082.6138 YYZZ=          -1050.1499
 XXYZ=             18.4882 YYXZ=             18.7567 ZZXY=            -11.9257
 N-N= 3.543518568895D+03 E-N=-2.467843754869D+04  KE= 6.661964514816D+03
 No NMR shielding tensors so no spin-rotation constants.
 Leave Link  601 at Tue Mar  6 12:23:28 2018, MaxMem=   536870912 cpu:         2.4
 (Enter /share/apps//mg09/l701.exe)
 Compute integral first derivatives.
 ... and contract with generalized density number  0.
   1 Symmetry operations used in ECPInt.
 ECPInt:  NShTT=   10440 NPrTT=   41973 LenC2=    9674 LenP2D=   27429.
 LDataN:  DoStor=T MaxTD1= 9 Len=  602
 Leave Link  701 at Tue Mar  6 12:23:58 2018, MaxMem=   536870912 cpu:       115.5
 (Enter /share/apps//mg09/l702.exe)
 L702 exits ... SP integral derivatives will be done elsewhere.
 Leave Link  702 at Tue Mar  6 12:23:59 2018, MaxMem=   536870912 cpu:         0.4
 (Enter /share/apps//mg09/l703.exe)
 Compute integral first derivatives, UseDBF=F ICtDFT=           0.
 Integral derivatives from FoFJK, PRISM(SPDF).
 Calling FoFJK, ICntrl=      2127 FMM=F ISym2X=0 I1Cent= 0 IOpClX= 0 NMat=1 NMatS=1 NMatT=0.
 FoFJK:  IHMeth= 1 ICntrl=    2127 DoSepK=F KAlg= 0 I1Cent=   0 FoldK=F
 IRaf=         0 NMat=   1 IRICut=       1 DoRegI=T DoRafI=F ISym2E= 0.
 FoFCou: FMM=F IPFlag=           0 FMFlag=      100000 FMFlg1=         800
         NFxFlg=           0 DoJE=F BraDBF=F KetDBF=F FulRan=T
         wScrn=  0.000000 ICntrl=    2127 IOpCl=  0 I1Cent=           0 NGrid=           0
         NMat0=    1 NMatS0=      1 NMatT0=    0 NMatD0=    1 NMtDS0=    0 NMtDT0=    0
 Symmetry not used in FoFCou.
 Defaulting to unpruned grid for atomic number  83.
 Defaulting to unpruned grid for atomic number  83.
 Defaulting to unpruned grid for atomic number  83.
 Defaulting to unpruned grid for atomic number  83.
 Leave Link  703 at Tue Mar  6 12:32:19 2018, MaxMem=   536870912 cpu:      1814.7
 (Enter /share/apps//mg09/l716.exe)
 Dipole        = 7.97085459D-02 6.05206090D-01 5.95560238D-02
 ***** Axes restored to original set *****
 -------------------------------------------------------------------
 Center     Atomic                   Forces (Hartrees/Bohr)
 Number     Number              X              Y              Z
 -------------------------------------------------------------------
      1       83          -0.008964429    0.000528744   -0.004157956
      2       32           0.001555927    0.002619670   -0.012759228
      3       83           0.002941586    0.007147693   -0.001483249
      4       32          -0.001035086   -0.013356943   -0.006695461
      5       83           0.011023741    0.001405747   -0.001778430
      6       32           0.007337621   -0.009201641    0.010909336
      7       50          -0.012640122   -0.003062502    0.006912453
      8       50           0.004584520    0.008507177    0.008548407
      9       83          -0.004803758    0.005412053    0.000504128
 -------------------------------------------------------------------
 Cartesian Forces:  Max     0.013356943 RMS     0.007140047
 Force constants in Cartesian coordinates: 
                1             2             3             4             5 
      1  0.180661D+00
      2 -0.988678D-02  0.112403D+00
      3  0.207208D-01  0.237608D-02  0.146441D+00
      4 -0.665343D-01 -0.132313D-01  0.355697D-01  0.139311D+00
      5 -0.332338D-02 -0.181683D-01  0.254825D-02  0.133024D-01  0.118462D+00
      6 -0.265545D-02  0.868979D-03 -0.389714D-01 -0.205819D-02 -0.590323D-03
      7 -0.254409D-02 -0.633439D-02 -0.381202D-02 -0.198329D-01 -0.110063D-01
      8 -0.533178D-02 -0.175655D-02  0.164654D-02 -0.929094D-02 -0.507698D-01
      9 -0.361778D-02  0.162176D-02  0.421003D-02 -0.488364D-02 -0.381984D-01
     10 -0.508865D-01  0.435545D-01 -0.584736D-02 -0.176691D-01 -0.819658D-02
     11  0.106332D-01 -0.525085D-01 -0.836504D-02 -0.201443D-02 -0.478196D-01
     12 -0.174968D-01  0.109993D-01 -0.291292D-01  0.247224D-02  0.288218D-01
     13 -0.608731D-02 -0.270163D-02 -0.651610D-02 -0.533563D-01  0.263108D-02
     14  0.354225D-02  0.594926D-02 -0.484222D-03  0.648094D-02 -0.189430D-01
     15  0.119956D-02 -0.192003D-02  0.499907D-02 -0.416132D-01  0.105936D-01
     16  0.686177D-03 -0.206402D-02 -0.550431D-02  0.750363D-02  0.395944D-02
     17  0.323235D-02  0.417945D-02  0.597486D-02  0.283482D-02  0.510171D-02
     18 -0.809174D-02  0.185438D-02  0.245158D-02  0.194309D-02  0.113593D-02
     19 -0.295110D-01  0.374860D-02 -0.210276D-01  0.366250D-02 -0.111751D-02
     20 -0.569422D-02 -0.172756D-01  0.631999D-02 -0.332198D-02  0.463816D-02
     21  0.162887D-01  0.160745D-01 -0.569687D-01  0.161726D-02 -0.169931D-02
     22  0.506172D-03 -0.455941D-03 -0.132965D-03  0.431246D-02 -0.185532D-02
     23 -0.370726D-02  0.458923D-02 -0.226971D-02 -0.341738D-03  0.547914D-02
     24 -0.863125D-02 -0.268111D-02 -0.153495D-02  0.301392D-02 -0.624680D-03
     25 -0.262899D-01 -0.126291D-01 -0.134501D-01  0.260308D-02  0.560610D-02
     26  0.105356D-01 -0.374123D-01 -0.774674D-02  0.558223D-02  0.202011D-02
     27  0.228390D-02 -0.291938D-01 -0.314973D-01  0.393883D-02 -0.198691D-02
                6             7             8             9            10 
      6  0.192288D+00
      7  0.234639D-02  0.108370D+00
      8 -0.369082D-03  0.142220D-01  0.167937D+00
      9 -0.447979D-01 -0.152486D-01 -0.852940D-02  0.121582D+00
     10 -0.717150D-03  0.455039D-02  0.140174D-02  0.157748D-02  0.162371D+00
     11 -0.114128D-01 -0.626024D-02 -0.600353D-02  0.297733D-02 -0.446050D-02
     12 -0.380032D-01  0.198670D-03 -0.334065D-02  0.590785D-02  0.151660D-01
     13 -0.914412D-03 -0.363153D-01 -0.209480D-02  0.738531D-02 -0.545480D-01
     14  0.568465D-02  0.344696D-01 -0.495810D-01  0.497570D-02 -0.349957D-01
     15 -0.542495D-01 -0.140845D-02  0.110674D-01 -0.197267D-01 -0.104379D-01
     16 -0.256860D-02  0.488911D-02  0.141604D-02 -0.361453D-02 -0.281202D-01
     17  0.696837D-02 -0.391554D-02 -0.228846D-02  0.443574D-02 -0.909288D-02
     18 -0.415165D-02 -0.331445D-03  0.745472D-02  0.382183D-02 -0.169366D-01
     19  0.755177D-02  0.208639D-02 -0.658418D-02  0.158673D-02 -0.251657D-01
     20  0.531094D-02 -0.197892D-02 -0.470059D-04 -0.543854D-03  0.131583D-01
     21 -0.292032D-02  0.432591D-02  0.683577D-02  0.156310D-02  0.187922D-01
     22 -0.491070D-02 -0.128695D-01 -0.550536D-02  0.612759D-02  0.656038D-02
     23 -0.450761D-02 -0.772943D-03 -0.288512D-01  0.243570D-01 -0.181694D-03
     24 -0.521315D-02 -0.940918D-02 -0.100195D-01 -0.491163D-01 -0.212141D-02
     25  0.392635D-02 -0.483341D-01  0.117673D-01  0.106874D-01  0.290801D-02
     26 -0.195313D-02 -0.184234D-01 -0.286391D-01  0.890407D-02 -0.118719D-02
     27 -0.398099D-02  0.233387D-01 -0.474585D-02 -0.234437D-01  0.524706D-03
               11            12            13            14            15 
     11  0.230072D+00
     12  0.214459D-01  0.164503D+00
     13  0.131580D-02  0.395199D-02  0.238790D+00
     14 -0.458359D-01 -0.506656D-02 -0.341341D-02  0.156801D+00
     15 -0.979108D-02 -0.210907D-01 -0.888098D-02 -0.199410D-01  0.170275D+00
     16  0.818694D-02 -0.111343D-01 -0.466348D-01 -0.221919D-01  0.369469D-01
     17 -0.388148D-01 -0.272589D-01  0.464856D-02 -0.376259D-01  0.204912D-01
     18  0.138263D-01 -0.562270D-01  0.257632D-02  0.281261D-01 -0.554599D-01
     19 -0.116054D-01  0.736352D-02 -0.692643D-02  0.108317D-02  0.366928D-02
     20 -0.322045D-01 -0.192256D-01 -0.470053D-02  0.647241D-02  0.275572D-02
     21  0.672794D-02 -0.302481D-01  0.938871D-02  0.874629D-03  0.407811D-02
     22 -0.380006D-02 -0.344363D-02 -0.312677D-01  0.148576D-01  0.209705D-01
     23 -0.268715D-02 -0.435102D-02 -0.429164D-02 -0.192704D-01 -0.115956D-01
     24 -0.117982D-01 -0.520204D-03 -0.102494D-01 -0.123763D-01 -0.335555D-01
     25  0.800462D-02  0.292227D-02 -0.365429D-02  0.167359D-03 -0.445671D-03
     26 -0.419812D-02 -0.202432D-02  0.860657D-02  0.203386D-02 -0.166022D-02
     27 -0.361039D-02  0.480775D-02  0.325859D-02 -0.179300D-02  0.472974D-02
               16            17            18            19            20 
     16  0.142866D+00
     17 -0.120918D-01  0.156351D+00
     18  0.913548D-02 -0.369773D-01  0.167264D+00
     19 -0.631783D-01 -0.521729D-02  0.175947D-01  0.172389D+00
     20  0.229082D-01 -0.286855D-01  0.401476D-02  0.131657D-01  0.137783D+00
     21 -0.166523D-01  0.114512D-01 -0.288390D-01 -0.308237D-01 -0.308325D-01
     22 -0.212738D-01  0.120806D-01 -0.308149D-02 -0.263810D-01 -0.178175D-01
     23 -0.641066D-02 -0.578174D-01 -0.243356D-01 -0.845644D-02 -0.199010D-01
     24 -0.803416D-02  0.152184D-01 -0.318736D-01  0.136017D-01  0.754650D-02
     25  0.326233D-02  0.752124D-02 -0.280831D-02 -0.269753D-01 -0.157191D-01
     26  0.628781D-02 -0.399767D-03  0.490065D-02  0.149833D-01 -0.507796D-01
     27  0.142585D-02 -0.303591D-03  0.301388D-02  0.483624D-03  0.246541D-01
               21            22            23            24            25 
     21  0.160521D+00
     22 -0.136535D-01  0.123158D+00
     23 -0.130732D-01  0.487893D-02  0.145779D+00
     24 -0.254423D-01  0.290388D-01  0.262211D-01  0.178942D+00
     25  0.107167D-01 -0.427447D-01  0.192834D-01 -0.720900D-02  0.139225D+00
     26  0.364105D-02 -0.238303D-02 -0.273204D-01 -0.114863D-01 -0.240019D-01
     27 -0.217435D-01 -0.309145D-01  0.955454D-02 -0.316861D-01 -0.433968D-02
               26            27 
     26  0.144695D+00
     27  0.742494D-02  0.998002D-01
 Leave Link  716 at Tue Mar  6 12:32:19 2018, MaxMem=   536870912 cpu:         0.1
 (Enter /share/apps//mg09/l103.exe)

 GradGradGradGradGradGradGradGradGradGradGradGradGradGradGradGradGradGrad
 Berny optimization.
 Search for a local minimum.
 Step number   1 out of a maximum of  100
 All quantities printed in internal units (Hartrees-Bohrs-Radians)
 Second derivative matrix not updated -- first step.
 ITU=  0
     Eigenvalues ---    0.08115   0.11886   0.12033   0.12449   0.13591
     Eigenvalues ---    0.14089   0.14498   0.14885   0.16143   0.16799
     Eigenvalues ---    0.17323   0.22712   0.22818   0.22958   0.23925
     Eigenvalues ---    0.24484   0.26619   0.28330   0.29761   0.31070
     Eigenvalues ---    0.32035
 RFO step:  Lambda=-8.17954635D-03 EMin= 8.11549048D-02
 Linear search not attempted -- first point.
 TrRot=  0.000956 -0.002054 -0.001098 -0.346798 -0.000097  0.346750
 MatCor failed.
 Variable       Old X    -DE/DX   Delta X   Delta X   Delta X     New X
                                 (Linear)    (Quad)   (Total)
    X1        3.89263  -0.00896   0.00000  -0.05559  -0.05480   3.83783
    Y1        1.31588   0.00053   0.00000  -0.00945  -0.01160   1.30428
    Z1        2.53614  -0.00416   0.00000  -0.03487  -0.03566   2.50047
    X2       -1.01769   0.00156   0.00000   0.00871   0.00926  -1.00843
    Y2        0.51858   0.00262   0.00000   0.01921   0.01735   0.53594
    Z2        4.76215  -0.01276   0.00000  -0.07482  -0.07602   4.68613
    X3       -1.98816   0.00294   0.00000   0.02735   0.02801  -1.96015
    Y3       -3.77874   0.00715   0.00000   0.05438   0.05247  -3.72627
    Z3        1.39522  -0.00148   0.00000  -0.01260  -0.01376   1.38147
    X4       -0.15415  -0.00104   0.00000  -0.00578  -0.00472  -0.15888
    Y4        4.80335  -0.01336   0.00000  -0.06773  -0.06973   4.73362
    Z4        1.39652  -0.00670   0.00000  -0.03434  -0.03561   1.36092
    X5       -4.55337   0.01102   0.00000   0.05621   0.05718  -4.49619
    Y5        1.33236   0.00141   0.00000  -0.00401  -0.00584   1.32653
    Z5        0.59914  -0.00178   0.00000  -0.01151  -0.01307   0.58607
    X6       -2.06861   0.00734   0.00000   0.04190   0.04335  -2.02527
    Y6        3.94438  -0.00920   0.00000  -0.05041  -0.05248   3.89190
    Z6       -3.43083   0.01091   0.00000   0.06494   0.06353  -3.36730
    X7        3.13015  -0.01264   0.00000  -0.07069  -0.06933   3.06081
    Y7        2.52186  -0.00306   0.00000  -0.02152  -0.02382   2.49805
    Z7       -3.09079   0.00691   0.00000   0.04554   0.04464  -3.04615
    X8       -1.72986   0.00458   0.00000   0.02718   0.02844  -1.70142
    Y8       -1.53060   0.00851   0.00000   0.05303   0.05092  -1.47968
    Z8       -4.17638   0.00855   0.00000   0.05827   0.05706  -4.11932
    X9        3.05469  -0.00480   0.00000  -0.03831  -0.03738   3.01731
    Y9       -3.03920   0.00541   0.00000   0.04495   0.04271  -2.99649
    Z9       -1.20438   0.00050   0.00000   0.00961   0.00889  -1.19550
         Item               Value     Threshold  Converged?
 Maximum Force            0.013357     0.000450     NO 
 RMS     Force            0.007140     0.000300     NO 
 Maximum Displacement     0.076024     0.001800     NO 
 RMS     Displacement     0.043000     0.001200     NO 
 Predicted change in Energy=-4.294195D-03
 Lowest energy point so far.  Saving SCF results.
 GradGradGradGradGradGradGradGradGradGradGradGradGradGradGradGradGradGrad

 Leave Link  103 at Tue Mar  6 12:32:19 2018, MaxMem=   536870912 cpu:         0.1
 (Enter /share/apps//mg09/l202.exe)
                          Input orientation:                          
 ---------------------------------------------------------------------
 Center     Atomic      Atomic             Coordinates (Angstroms)
 Number     Number       Type             X           Y           Z
 ---------------------------------------------------------------------
      1         83           0        2.030894    0.690194    1.323194
      2         32           0       -0.533636    0.283605    2.479791
      3         83           0       -1.037268   -1.971858    0.731042
      4         32           0       -0.084073    2.504926    0.720165
      5         83           0       -2.379283    0.701968    0.310136
      6         32           0       -1.071725    2.059507   -1.781900
      7         50           0        1.619713    1.321910   -1.611952
      8         50           0       -0.900354   -0.783012   -2.179851
      9         83           0        1.596690   -1.585676   -0.632629
 ---------------------------------------------------------------------
                    Distance matrix (angstroms):
                    1          2          3          4          5
     1  Bi   0.000000
     2  Ge   2.842507   0.000000
     3  Bi   4.104971   2.898083   0.000000
     4  Ge   2.851312   2.869261   4.577150   0.000000
     5  Bi   4.525051   2.879035   3.021177   2.947333   0.000000
     6  Ge   4.598138   4.648159   4.750576   2.726571   2.815890
     7  Sn   3.030382   4.738919   4.837157   3.121087   4.480036
     8  Sn   4.799362   4.794207   3.147284   4.459479   3.254602
     9  Bi   3.032055   4.209472   2.991065   4.624721   4.682999
                    6          7          8          9
     6  Ge   0.000000
     7  Sn   2.795849   0.000000
     8  Sn   2.875352   3.332259   0.000000
     9  Bi   4.661397   3.068169   3.045225   0.000000
 Stoichiometry    Bi4Ge3Sn2
 Framework group  C1[X(Bi4Ge3Sn2)]
 Deg. of freedom    21
 Full point group                 C1      NOp   1
 RotChk:  IX=0 Diff= 1.63D-02
 Largest Abelian subgroup         C1      NOp   1
 Largest concise Abelian subgroup C1      NOp   1
                         Standard orientation:                         
 ---------------------------------------------------------------------
 Center     Atomic      Atomic             Coordinates (Angstroms)
 Number     Number       Type             X           Y           Z
 ---------------------------------------------------------------------
      1         83           0        2.023408   -0.697731   -1.330953
      2         32           0       -0.538558   -0.259228   -2.481557
      3         83           0       -1.017745    1.990664   -0.718818
      4         32           0       -0.108423   -2.495220   -0.735710
      5         83           0       -2.385317   -0.672348   -0.311844
      6         32           0       -1.088327   -2.054977    1.770315
      7         50           0        1.609977   -1.342758    1.600980
      8         50           0       -0.888596    0.783324    2.184809
      9         83           0        1.614122    1.570660    0.638880
 ---------------------------------------------------------------------
 Rotational constants (GHZ):      0.1058058      0.0920680      0.0854314
 Leave Link  202 at Tue Mar  6 12:32:21 2018, MaxMem=   536870912 cpu:         0.0
 (Enter /share/apps//mg09/l301.exe)
 Standard basis: def2TZVP (5D, 7F)
 Ernie: Thresh=  0.10000D-02 Tol=  0.10000D-05 Strict=F.
 There are   519 symmetry adapted cartesian basis functions of A   symmetry.
 There are   444 symmetry adapted basis functions of A   symmetry.
   444 basis functions,   963 primitive gaussians,   519 cartesian basis functions
   116 alpha electrons      116 beta electrons
       nuclear repulsion energy      3599.1119747788 Hartrees.
 IExCor= 1009 DFT=T Ex+Corr=PBE1PBE ExCW=0 ScaHFX=  0.250000
 ScaDFX=  0.750000  0.750000  1.000000  1.000000 ScalE2=  1.000000  1.000000
 IRadAn=      0 IRanWt=     -1 IRanGd=            0 ICorTp=0 IEmpDi=  4
 NAtoms=    9 NActive=    9 NUniq=    9 SFac= 1.00D+00 NAtFMM=   60 NAOKFM=F Big=F
 Integral buffers will be    131072 words long.
 Raffenetti 2 integral format.
 Two-electron integral symmetry is turned on.
 Leave Link  301 at Tue Mar  6 12:32:21 2018, MaxMem=   536870912 cpu:         0.2
 (Enter /share/apps//mg09/l302.exe)
 NPDir=0 NMtPBC=     1 NCelOv=     1 NCel=       1 NClECP=     1 NCelD=      1
         NCelK=      1 NCelE2=     1 NClLst=     1 CellRange=     0.0.
 One-electron integrals computed using PRISM.
   1 Symmetry operations used in ECPInt.
 ECPInt:  NShTT=   10440 NPrTT=   41973 LenC2=    9700 LenP2D=   27617.
 LDataN:  DoStor=T MaxTD1= 8 Len=  415
 NBasis=   444 RedAO= T EigKep=  1.39D-03  NBF=   444
 NBsUse=   444 1.00D-06 EigRej= -1.00D+00 NBFU=   444
 Precomputing XC quadrature grid using
 IXCGrd= 4 IRadAn=           0 IRanWt=          -1 IRanGd=           0 AccXCQ= 0.00D+00.
 Defaulting to unpruned grid for atomic number  83.
 Defaulting to unpruned grid for atomic number  50.
 Defaulting to unpruned grid for atomic number  83.
 Generated NRdTot=       0 NPtTot=           0 NUsed=           0 NTot=          32
 NSgBfM=   503   504   504   507   507 MxSgAt=     9 MxSgA2=     9.
 Leave Link  302 at Tue Mar  6 12:32:34 2018, MaxMem=   536870912 cpu:        51.2
 (Enter /share/apps//mg09/l303.exe)
 DipDrv:  MaxL=1.
 Leave Link  303 at Tue Mar  6 12:32:34 2018, MaxMem=   536870912 cpu:         0.2
 (Enter /share/apps//mg09/l401.exe)
 Initial guess from the checkpoint file:  "Isomer_09.chk"
 B after Tr=     0.000000    0.000000    0.000000
         Rot=    0.999983   -0.003086   -0.000615    0.004940 Ang=  -0.67 deg.
 Guess basis will be translated and rotated to current coordinates.
 JPrj=2 DoOrth=T DoCkMO=T.
 Generating alternative initial guess.
 ExpMin= 4.62D-02 ExpMax= 4.66D+05 ExpMxC= 4.50D+03 IAcc=2 IRadAn=         4 AccDes= 0.00D+00
 Harris functional with IExCor= 1009 and IRadAn=       4 diagonalized for initial guess.
 HarFok:  IExCor= 1009 AccDes= 0.00D+00 IRadAn=         4 IDoV= 1 UseB2=F ITyADJ=14
 ICtDFT=  3500011 ScaDFX=  1.000000  1.000000  1.000000  1.000000
 Defaulting to unpruned grid for atomic number  83.
 Defaulting to unpruned grid for atomic number  83.
 Defaulting to unpruned grid for atomic number  83.
 Defaulting to unpruned grid for atomic number  83.
 FoFCou: FMM=F IPFlag=           0 FMFlag=      100000 FMFlg1=           0
         NFxFlg=           0 DoJE=T BraDBF=F KetDBF=T FulRan=T
         wScrn=  0.000000 ICntrl=     500 IOpCl=  0 I1Cent=   200000004 NGrid=           0
         NMat0=    1 NMatS0=      1 NMatT0=    0 NMatD0=    1 NMtDS0=    0 NMtDT0=    0
 Petite list used in FoFCou.
 Harris En= -7518.62218130670    
 Leave Link  401 at Tue Mar  6 12:32:39 2018, MaxMem=   536870912 cpu:        21.4
 (Enter /share/apps//mg09/l502.exe)
 Closed shell SCF:
 Using DIIS extrapolation, IDIIS=  1040.
 Integral symmetry usage will be decided dynamically.
 IVT=     1410107 IEndB=     1410107 NGot=   536870912 MDV=   536322046
 LenX=   536322046 LenY=   536052166
 Requested convergence on RMS density matrix=1.00D-08 within 768 cycles.
 Requested convergence on MAX density matrix=1.00D-06.
 Requested convergence on             energy=1.00D-06.
 No special actions if energy rises.
 Fock matrices will be formed incrementally for  20 cycles.

 Cycle   1  Pass 1  IDiag  1:
 FoFJK:  IHMeth= 1 ICntrl=       0 DoSepK=F KAlg= 0 I1Cent=   0 FoldK=F
 IRaf= 880000000 NMat=   1 IRICut=       1 DoRegI=T DoRafI=F ISym2E= 0.
 FoFCou: FMM=F IPFlag=           0 FMFlag=      100000 FMFlg1=           0
         NFxFlg=           0 DoJE=F BraDBF=F KetDBF=F FulRan=T
         wScrn=  0.000000 ICntrl=       0 IOpCl=  0 I1Cent=           0 NGrid=           0
         NMat0=    1 NMatS0=      1 NMatT0=    0 NMatD0=    1 NMtDS0=    0 NMtDT0=    0
 Symmetry not used in FoFCou.
 Defaulting to unpruned grid for atomic number  83.
 Defaulting to unpruned grid for atomic number  83.
 Defaulting to unpruned grid for atomic number  83.
 Defaulting to unpruned grid for atomic number  83.
 E= -7517.82378334845    
 DIIS: error= 5.12D-03 at cycle   1 NSaved=   1.
 NSaved= 1 IEnMin= 1 EnMin= -7517.82378334845     IErMin= 1 ErrMin= 5.12D-03
 ErrMax= 5.12D-03  0.00D+00 EMaxC= 1.00D-01 BMatC= 8.45D-03 BMatP= 8.45D-03
 IDIUse=3 WtCom= 9.49D-01 WtEn= 5.12D-02
 Coeff-Com:  0.100D+01
 Coeff-En:   0.100D+01
 Coeff:      0.100D+01
 Gap=     7.841 Goal=   None    Shift=    0.000
 GapD=    7.841 DampG=2.000 DampE=1.000 DampFc=2.0000 IDamp=-1.
 RMSDP=1.73D-04 MaxDP=4.20D-03              OVMax= 1.91D-02

 Cycle   2  Pass 1  IDiag  1:
 RMSU=  1.73D-04    CP:  1.00D+00
 E= -7517.82379892893     Delta-E=       -0.000015580474 Rises=F Damp=F
 DIIS: error= 1.44D-03 at cycle   2 NSaved=   2.
 NSaved= 2 IEnMin= 2 EnMin= -7517.82379892893     IErMin= 2 ErrMin= 1.44D-03
 ErrMax= 1.44D-03  0.00D+00 EMaxC= 1.00D-01 BMatC= 1.56D-03 BMatP= 8.45D-03
 IDIUse=3 WtCom= 9.86D-01 WtEn= 1.44D-02
 Coeff-Com:  0.194D+00 0.806D+00
 Coeff-En:   0.496D+00 0.504D+00
 Coeff:      0.198D+00 0.802D+00
 Gap=     0.126 Goal=   None    Shift=    0.000
 RMSDP=2.11D-04 MaxDP=8.42D-03 DE=-1.56D-05 OVMax= 1.71D-02

 Cycle   3  Pass 1  IDiag  1:
 RMSU=  1.93D-04    CP:  9.99D-01  5.32D-01
 E= -7517.82160670686     Delta-E=        0.002192222066 Rises=F Damp=F
 DIIS: error= 2.15D-03 at cycle   3 NSaved=   3.
 NSaved= 3 IEnMin= 2 EnMin= -7517.82379892893     IErMin= 2 ErrMin= 1.44D-03
 ErrMax= 2.15D-03  0.00D+00 EMaxC= 1.00D-01 BMatC= 3.91D-03 BMatP= 1.56D-03
 IDIUse=3 WtCom= 1.78D-01 WtEn= 8.22D-01
 Coeff-Com:  0.833D-02 0.612D+00 0.380D+00
 Coeff-En:   0.000D+00 0.680D+00 0.320D+00
 Coeff:      0.148D-02 0.668D+00 0.331D+00
 Gap=     0.128 Goal=   None    Shift=    0.000
 RMSDP=1.23D-04 MaxDP=4.88D-03 DE= 2.19D-03 OVMax= 1.29D-02

 Cycle   4  Pass 1  IDiag  1:
 RMSU=  4.99D-05    CP:  9.99D-01  7.91D-01  4.72D-01
 E= -7517.82481777910     Delta-E=       -0.003211072240 Rises=F Damp=F
 DIIS: error= 4.81D-04 at cycle   4 NSaved=   4.
 NSaved= 4 IEnMin= 4 EnMin= -7517.82481777910     IErMin= 4 ErrMin= 4.81D-04
 ErrMax= 4.81D-04  0.00D+00 EMaxC= 1.00D-01 BMatC= 2.74D-04 BMatP= 1.56D-03
 IDIUse=3 WtCom= 9.95D-01 WtEn= 4.81D-03
 Coeff-Com:  0.121D-03 0.450D+00 0.233D+00 0.317D+00
 Coeff-En:   0.000D+00 0.127D+00 0.000D+00 0.873D+00
 Coeff:      0.120D-03 0.448D+00 0.232D+00 0.320D+00
 Gap=     0.128 Goal=   None    Shift=    0.000
 RMSDP=4.21D-05 MaxDP=1.73D-03 DE=-3.21D-03 OVMax= 4.12D-03

 Cycle   5  Pass 1  IDiag  1:
 RMSU=  1.36D-05    CP:  9.99D-01  8.56D-01  4.32D-01  2.55D-01
 E= -7517.82504871284     Delta-E=       -0.000230933745 Rises=F Damp=F
 DIIS: error= 9.08D-05 at cycle   5 NSaved=   5.
 NSaved= 5 IEnMin= 5 EnMin= -7517.82504871284     IErMin= 5 ErrMin= 9.08D-05
 ErrMax= 9.08D-05  0.00D+00 EMaxC= 1.00D-01 BMatC= 1.30D-05 BMatP= 2.74D-04
 IDIUse=1 WtCom= 1.00D+00 WtEn= 0.00D+00
 Coeff-Com: -0.925D-03 0.221D+00 0.104D+00 0.221D+00 0.454D+00
 Coeff:     -0.925D-03 0.221D+00 0.104D+00 0.221D+00 0.454D+00
 Gap=     0.128 Goal=   None    Shift=    0.000
 RMSDP=9.40D-06 MaxDP=4.25D-04 DE=-2.31D-04 OVMax= 1.00D-03

 Cycle   6  Pass 1  IDiag  1:
 RMSU=  3.95D-06    CP:  9.99D-01  8.64D-01  4.24D-01  3.78D-01  6.24D-01
 E= -7517.82506138652     Delta-E=       -0.000012673676 Rises=F Damp=F
 DIIS: error= 2.01D-05 at cycle   6 NSaved=   6.
 NSaved= 6 IEnMin= 6 EnMin= -7517.82506138652     IErMin= 6 ErrMin= 2.01D-05
 ErrMax= 2.01D-05  0.00D+00 EMaxC= 1.00D-01 BMatC= 5.71D-07 BMatP= 1.30D-05
 IDIUse=1 WtCom= 1.00D+00 WtEn= 0.00D+00
 Coeff-Com: -0.518D-03 0.992D-01 0.470D-01 0.107D+00 0.258D+00 0.489D+00
 Coeff:     -0.518D-03 0.992D-01 0.470D-01 0.107D+00 0.258D+00 0.489D+00
 Gap=     0.128 Goal=   None    Shift=    0.000
 RMSDP=3.39D-06 MaxDP=1.23D-04 DE=-1.27D-05 OVMax= 4.27D-04

 Cycle   7  Pass 1  IDiag  1:
 RMSU=  2.83D-06    CP:  9.99D-01  8.67D-01  4.26D-01  3.77D-01  6.83D-01
                    CP:  6.10D-01
 E= -7517.82506145780     Delta-E=       -0.000000071281 Rises=F Damp=F
 DIIS: error= 2.41D-05 at cycle   7 NSaved=   7.
 NSaved= 7 IEnMin= 7 EnMin= -7517.82506145780     IErMin= 6 ErrMin= 2.01D-05
 ErrMax= 2.41D-05  0.00D+00 EMaxC= 1.00D-01 BMatC= 4.76D-07 BMatP= 5.71D-07
 IDIUse=1 WtCom= 1.00D+00 WtEn= 0.00D+00
 Coeff-Com: -0.151D-03 0.119D-01 0.642D-02 0.201D-01 0.774D-01 0.464D+00
 Coeff-Com:  0.421D+00
 Coeff:     -0.151D-03 0.119D-01 0.642D-02 0.201D-01 0.774D-01 0.464D+00
 Coeff:      0.421D+00
 Gap=     0.128 Goal=   None    Shift=    0.000
 RMSDP=2.14D-06 MaxDP=7.54D-05 DE=-7.13D-08 OVMax= 2.60D-04

 Cycle   8  Pass 1  IDiag  1:
 RMSU=  8.93D-07    CP:  9.99D-01  8.69D-01  4.28D-01  3.77D-01  7.00D-01
                    CP:  9.08D-01  4.86D-01
 E= -7517.82506203211     Delta-E=       -0.000000574313 Rises=F Damp=F
 DIIS: error= 5.33D-06 at cycle   8 NSaved=   8.
 NSaved= 8 IEnMin= 8 EnMin= -7517.82506203211     IErMin= 8 ErrMin= 5.33D-06
 ErrMax= 5.33D-06  0.00D+00 EMaxC= 1.00D-01 BMatC= 4.46D-08 BMatP= 4.76D-07
 IDIUse=1 WtCom= 1.00D+00 WtEn= 0.00D+00
 Coeff-Com:  0.221D-05-0.130D-01-0.529D-02-0.765D-02-0.592D-03 0.222D+00
 Coeff-Com:  0.296D+00 0.509D+00
 Coeff:      0.221D-05-0.130D-01-0.529D-02-0.765D-02-0.592D-03 0.222D+00
 Coeff:      0.296D+00 0.509D+00
 Gap=     0.128 Goal=   None    Shift=    0.000
 RMSDP=6.31D-07 MaxDP=4.23D-05 DE=-5.74D-07 OVMax= 7.12D-05

 Cycle   9  Pass 1  IDiag  1:
 RMSU=  2.52D-07    CP:  9.99D-01  8.69D-01  4.29D-01  3.79D-01  7.07D-01
                    CP:  9.33D-01  6.02D-01  5.64D-01
 E= -7517.82506207742     Delta-E=       -0.000000045306 Rises=F Damp=F
 DIIS: error= 1.03D-06 at cycle   9 NSaved=   9.
 NSaved= 9 IEnMin= 9 EnMin= -7517.82506207742     IErMin= 9 ErrMin= 1.03D-06
 ErrMax= 1.03D-06  0.00D+00 EMaxC= 1.00D-01 BMatC= 3.06D-09 BMatP= 4.46D-08
 IDIUse=1 WtCom= 1.00D+00 WtEn= 0.00D+00
 Coeff-Com:  0.186D-04-0.910D-02-0.378D-02-0.660D-02-0.985D-02 0.816D-01
 Coeff-Com:  0.134D+00 0.292D+00 0.522D+00
 Coeff:      0.186D-04-0.910D-02-0.378D-02-0.660D-02-0.985D-02 0.816D-01
 Coeff:      0.134D+00 0.292D+00 0.522D+00
 Gap=     0.128 Goal=   None    Shift=    0.000
 RMSDP=1.61D-07 MaxDP=1.22D-05 DE=-4.53D-08 OVMax= 2.12D-05

 Cycle  10  Pass 1  IDiag  1:
 RMSU=  9.30D-08    CP:  9.99D-01  8.69D-01  4.29D-01  3.80D-01  7.12D-01
                    CP:  9.34D-01  6.07D-01  6.34D-01  8.01D-01
 E= -7517.82506208029     Delta-E=       -0.000000002874 Rises=F Damp=F
 DIIS: error= 2.98D-07 at cycle  10 NSaved=  10.
 NSaved=10 IEnMin=10 EnMin= -7517.82506208029     IErMin=10 ErrMin= 2.98D-07
 ErrMax= 2.98D-07  0.00D+00 EMaxC= 1.00D-01 BMatC= 1.24D-10 BMatP= 3.06D-09
 IDIUse=1 WtCom= 1.00D+00 WtEn= 0.00D+00
 Coeff-Com:  0.614D-05-0.233D-02-0.940D-03-0.172D-02-0.385D-02 0.138D-01
 Coeff-Com:  0.268D-01 0.712D-01 0.199D+00 0.698D+00
 Coeff:      0.614D-05-0.233D-02-0.940D-03-0.172D-02-0.385D-02 0.138D-01
 Coeff:      0.268D-01 0.712D-01 0.199D+00 0.698D+00
 Gap=     0.128 Goal=   None    Shift=    0.000
 RMSDP=7.18D-08 MaxDP=3.30D-06 DE=-2.87D-09 OVMax= 9.26D-06

 Cycle  11  Pass 1  IDiag  1:
 RMSU=  5.93D-08    CP:  9.99D-01  8.69D-01  4.29D-01  3.80D-01  7.13D-01
                    CP:  9.38D-01  6.12D-01  6.35D-01  8.99D-01  8.30D-01
 E= -7517.82506208016     Delta-E=        0.000000000133 Rises=F Damp=F
 DIIS: error= 4.84D-07 at cycle  11 NSaved=  11.
 NSaved=11 IEnMin=10 EnMin= -7517.82506208029     IErMin=10 ErrMin= 2.98D-07
 ErrMax= 4.84D-07  0.00D+00 EMaxC= 1.00D-01 BMatC= 2.09D-10 BMatP= 1.24D-10
 IDIUse=1 WtCom= 1.00D+00 WtEn= 0.00D+00
 Coeff-Com:  0.890D-06 0.135D-03 0.834D-04 0.769D-04-0.108D-02-0.735D-02
 Coeff-Com: -0.883D-02-0.646D-02 0.525D-01 0.620D+00 0.351D+00
 Coeff:      0.890D-06 0.135D-03 0.834D-04 0.769D-04-0.108D-02-0.735D-02
 Coeff:     -0.883D-02-0.646D-02 0.525D-01 0.620D+00 0.351D+00
 Gap=     0.128 Goal=   None    Shift=    0.000
 RMSDP=4.62D-08 MaxDP=1.84D-06 DE= 1.33D-10 OVMax= 5.15D-06

 Cycle  12  Pass 1  IDiag  1:
 RMSU=  1.70D-08    CP:  9.99D-01  8.69D-01  4.29D-01  3.80D-01  7.13D-01
                    CP:  9.40D-01  6.13D-01  6.39D-01  9.07D-01  1.06D+00
                    CP:  3.99D-01
 E= -7517.82506208045     Delta-E=       -0.000000000287 Rises=F Damp=F
 DIIS: error= 8.05D-08 at cycle  12 NSaved=  12.
 NSaved=12 IEnMin=12 EnMin= -7517.82506208045     IErMin=12 ErrMin= 8.05D-08
 ErrMax= 8.05D-08  0.00D+00 EMaxC= 1.00D-01 BMatC= 8.55D-12 BMatP= 1.24D-10
 IDIUse=1 WtCom= 1.00D+00 WtEn= 0.00D+00
 Coeff-Com: -0.481D-06 0.465D-03 0.208D-03 0.324D-03-0.110D-04-0.664D-02
 Coeff-Com: -0.100D-01-0.155D-01-0.920D-04 0.273D+00 0.217D+00 0.541D+00
 Coeff:     -0.481D-06 0.465D-03 0.208D-03 0.324D-03-0.110D-04-0.664D-02
 Coeff:     -0.100D-01-0.155D-01-0.920D-04 0.273D+00 0.217D+00 0.541D+00
 Gap=     0.128 Goal=   None    Shift=    0.000
 RMSDP=1.13D-08 MaxDP=7.29D-07 DE=-2.87D-10 OVMax= 1.70D-06

 Cycle  13  Pass 1  IDiag  1:
 RMSU=  6.80D-09    CP:  9.99D-01  8.69D-01  4.29D-01  3.80D-01  7.13D-01
                    CP:  9.41D-01  6.13D-01  6.42D-01  9.15D-01  1.09D+00
                    CP:  4.84D-01  7.13D-01
 E= -7517.82506208030     Delta-E=        0.000000000149 Rises=F Damp=F
 DIIS: error= 3.83D-08 at cycle  13 NSaved=  13.
 NSaved=13 IEnMin=12 EnMin= -7517.82506208045     IErMin=13 ErrMin= 3.83D-08
 ErrMax= 3.83D-08  0.00D+00 EMaxC= 1.00D-01 BMatC= 1.14D-12 BMatP= 8.55D-12
 IDIUse=1 WtCom= 1.00D+00 WtEn= 0.00D+00
 Coeff-Com: -0.386D-06 0.259D-03 0.113D-03 0.181D-03 0.136D-03-0.300D-02
 Coeff-Com: -0.484D-02-0.853D-02-0.695D-02 0.824D-01 0.858D-01 0.332D+00
 Coeff-Com:  0.523D+00
 Coeff:     -0.386D-06 0.259D-03 0.113D-03 0.181D-03 0.136D-03-0.300D-02
 Coeff:     -0.484D-02-0.853D-02-0.695D-02 0.824D-01 0.858D-01 0.332D+00
 Coeff:      0.523D+00
 Gap=     0.128 Goal=   None    Shift=    0.000
 RMSDP=4.16D-09 MaxDP=2.64D-07 DE= 1.49D-10 OVMax= 5.43D-07

 SCF Done:  E(RPBE1PBE) =  -7517.82506208     A.U. after   13 cycles
            NFock= 13  Conv=0.42D-08     -V/T= 2.1284
 KE= 6.662182137329D+03 PE=-2.478969812241D+04 EE= 7.010578948218D+03
 Leave Link  502 at Tue Mar  6 12:49:28 2018, MaxMem=   536870912 cpu:      3840.3
 (Enter /share/apps//mg09/l701.exe)
 Compute integral first derivatives.
 ... and contract with generalized density number  0.
   1 Symmetry operations used in ECPInt.
 ECPInt:  NShTT=   10440 NPrTT=   41973 LenC2=    9700 LenP2D=   27617.
 LDataN:  DoStor=T MaxTD1= 9 Len=  602
 Leave Link  701 at Tue Mar  6 12:50:03 2018, MaxMem=   536870912 cpu:       138.2
 (Enter /share/apps//mg09/l702.exe)
 L702 exits ... SP integral derivatives will be done elsewhere.
 Leave Link  702 at Tue Mar  6 12:50:03 2018, MaxMem=   536870912 cpu:         0.1
 (Enter /share/apps//mg09/l703.exe)
 Compute integral first derivatives, UseDBF=F ICtDFT=           0.
 Integral derivatives from FoFJK, PRISM(SPDF).
 Calling FoFJK, ICntrl=      2127 FMM=F ISym2X=0 I1Cent= 0 IOpClX= 0 NMat=1 NMatS=1 NMatT=0.
 FoFJK:  IHMeth= 1 ICntrl=    2127 DoSepK=F KAlg= 0 I1Cent=   0 FoldK=F
 IRaf=         0 NMat=   1 IRICut=       1 DoRegI=T DoRafI=F ISym2E= 0.
 FoFCou: FMM=F IPFlag=           0 FMFlag=      100000 FMFlg1=         800
         NFxFlg=           0 DoJE=F BraDBF=F KetDBF=F FulRan=T
         wScrn=  0.000000 ICntrl=    2127 IOpCl=  0 I1Cent=           0 NGrid=           0
         NMat0=    1 NMatS0=      1 NMatT0=    0 NMatD0=    1 NMtDS0=    0 NMtDT0=    0
 Symmetry not used in FoFCou.
 Defaulting to unpruned grid for atomic number  83.
 Defaulting to unpruned grid for atomic number  83.
 Defaulting to unpruned grid for atomic number  83.
 Defaulting to unpruned grid for atomic number  83.
 Leave Link  703 at Tue Mar  6 12:56:21 2018, MaxMem=   536870912 cpu:      1463.2
 (Enter /share/apps//mg09/l716.exe)
 Dipole        = 8.63501607D-02 6.34979351D-01 3.53750081D-02
 ***** Axes restored to original set *****
 -------------------------------------------------------------------
 Center     Atomic                   Forces (Hartrees/Bohr)
 Number     Number              X              Y              Z
 -------------------------------------------------------------------
      1       83          -0.002883565    0.001585627    0.000243310
      2       32           0.000640529    0.002560892   -0.006437304
      3       83           0.000267957    0.001167439    0.000581028
      4       32          -0.000372003   -0.007495011   -0.003747387
      5       83           0.003144997    0.001692037   -0.000561546
      6       32           0.003970024   -0.003834332    0.005404895
      7       50          -0.007088358   -0.000948804    0.002659185
      8       50           0.002367122    0.004932751    0.003385117
      9       83          -0.000046703    0.000339402   -0.001527297
 -------------------------------------------------------------------
 Cartesian Forces:  Max     0.007495011 RMS     0.003367769
 Leave Link  716 at Tue Mar  6 12:56:21 2018, MaxMem=   536870912 cpu:         0.1
 (Enter /share/apps//mg09/l103.exe)

 GradGradGradGradGradGradGradGradGradGradGradGradGradGradGradGradGradGrad
 Berny optimization.
 Search for a local minimum.
 Step number   2 out of a maximum of  100
 All quantities printed in internal units (Hartrees-Bohrs-Radians)
 Update second derivatives using D2CorN and points    1    2
 DE= -5.87D-03 DEPred=-4.29D-03 R= 1.37D+00
 TightC=F SS=  1.41D+00  RLast= 2.23D-01 DXNew= 5.0454D-01 6.7031D-01
 Trust test= 1.37D+00 RLast= 2.23D-01 DXMaxT set to 5.05D-01
 ITU=  1  0
     Eigenvalues ---    0.07954   0.09467   0.11974   0.12078   0.12467
     Eigenvalues ---    0.13610   0.14431   0.14526   0.15788   0.16801
     Eigenvalues ---    0.17327   0.22267   0.22746   0.22959   0.23903
     Eigenvalues ---    0.24416   0.26613   0.28325   0.29738   0.31065
     Eigenvalues ---    0.32039
 RFO step:  Lambda=-5.20245737D-04 EMin= 7.95359272D-02
 Quartic linear search produced a step of  0.63915.
 TrRot= -0.000010  0.000076  0.000031 -1.363751 -0.000115  1.363708
 Variable       Old X    -DE/DX   Delta X   Delta X   Delta X     New X
                                 (Linear)    (Quad)   (Total)
    X1        3.83783  -0.00288  -0.03502   0.00580  -0.02923   3.80860
    Y1        1.30428   0.00159  -0.00741   0.00869   0.00147   1.30575
    Z1        2.50047   0.00024  -0.02279   0.01243  -0.01039   2.49009
    X2       -1.00843   0.00064   0.00592  -0.00519   0.00063  -1.00779
    Y2        0.53594   0.00256   0.01109   0.01534   0.02707   0.56300
    Z2        4.68613  -0.00644  -0.04859  -0.00782  -0.05647   4.62966
    X3       -1.96015   0.00027   0.01790  -0.00543   0.01226  -1.94789
    Y3       -3.72627   0.00117   0.03354  -0.01426   0.01959  -3.70668
    Z3        1.38147   0.00058  -0.00879   0.01005   0.00166   1.38312
    X4       -0.15888  -0.00037  -0.00302  -0.00055  -0.00340  -0.16228
    Y4        4.73362  -0.00750  -0.04457  -0.01127  -0.05560   4.67802
    Z4        1.36092  -0.00375  -0.02276  -0.00605  -0.02930   1.33161
    X5       -4.49619   0.00314   0.03655  -0.00862   0.02796  -4.46824
    Y5        1.32653   0.00169  -0.00373   0.00653   0.00313   1.32966
    Z5        0.58607  -0.00056  -0.00835   0.00062  -0.00796   0.57811
[...]
     X           X         X             X  X                                                                                        
     X           X         X             X  X                                                                                        
     X           X         X             X  X                                                                                        
     X           X         X             X  X                                                                                        
     X           X         X             X  X                                                                                        
     X           X         X             X                                                                                           
                 X         X             X                                                                                           
                 X         X             X                                                                                           
                 X                       X                                                                                           
                 X                       X                                                                                           
                 X                                                                                                                   
                 X                                                                                                                   
                 X                                                                                                                   
                 X                                                                                                                   
                 X                                                                                                                   
 
 ***** Axes restored to original set *****
 -------------------------------------------------------------------
 Center     Atomic                   Forces (Hartrees/Bohr)
 Number     Number              X              Y              Z
 -------------------------------------------------------------------
      1       83          -0.000014001    0.000032190   -0.000016362
      2       32           0.000009403   -0.000030867    0.000061514
      3       83          -0.000041971   -0.000037561    0.000010935
      4       32           0.000011143   -0.000005528    0.000055350
      5       83           0.000050510   -0.000020661   -0.000051152
      6       32          -0.000015112    0.000037612    0.000040240
      7       50           0.000004393   -0.000004700   -0.000082075
      8       50           0.000011645    0.000023687   -0.000031657
      9       83          -0.000016009    0.000005829    0.000013208
 -------------------------------------------------------------------
 Cartesian Forces:  Max     0.000082075 RMS     0.000033684
 Force constants in Cartesian coordinates: 
                1             2             3             4             5 
      1  0.776634D-01
      2 -0.623416D-02  0.455611D-01
      3  0.126165D-01  0.601197D-02  0.711289D-01
      4 -0.368930D-01 -0.258982D-02  0.145465D-01  0.599257D-01
      5 -0.549168D-02 -0.335964D-03  0.476550D-02  0.829933D-02  0.348674D-01
      6  0.109830D-01  0.279093D-02 -0.104638D-01  0.913104D-03  0.822209D-03
      7 -0.382849D-02 -0.649966D-02  0.157098D-02 -0.170840D-02 -0.289500D-02
      8  0.257842D-03 -0.355542D-02 -0.499976D-03 -0.542187D-02 -0.221648D-01
      9 -0.312363D-03 -0.329098D-02 -0.281355D-03 -0.402226D-02 -0.118458D-01
     10 -0.215433D-01  0.178426D-01 -0.973620D-02  0.281325D-02 -0.300414D-02
     11  0.159462D-01 -0.145189D-01  0.209168D-02 -0.272821D-02 -0.101670D-01
     12 -0.916065D-02  0.533789D-02 -0.354880D-02  0.149999D-02  0.705758D-02
     13 -0.558666D-02  0.148261D-02  0.738169D-03 -0.202743D-01  0.126191D-02
     14 -0.455642D-03 -0.214073D-02 -0.641231D-04  0.105529D-02  0.238397D-02
     15 -0.278162D-02 -0.136050D-02  0.136217D-02 -0.167337D-01  0.474359D-02
     16 -0.213777D-02  0.282239D-02 -0.229331D-02  0.215700D-03 -0.874281D-03
     17  0.374499D-03 -0.209461D-02 -0.540137D-03 -0.497389D-03 -0.255078D-02
     18  0.101196D-03  0.998166D-03 -0.359203D-02 -0.328303D-02  0.231653D-02
     19 -0.480250D-02  0.133117D-02 -0.582691D-02 -0.587577D-03 -0.321796D-03
     20  0.303688D-03  0.113288D-02  0.717831D-02  0.794933D-03 -0.283189D-02
     21 -0.511188D-02  0.738206D-02 -0.323663D-01  0.686618D-02  0.248276D-02
     22  0.576286D-03 -0.642387D-02 -0.536472D-02 -0.164827D-02  0.220212D-02
     23 -0.142368D-02  0.151165D-03  0.125584D-02  0.128055D-02  0.188709D-02
     24  0.132342D-02 -0.112750D-02 -0.470532D-02 -0.396753D-02 -0.492213D-02
     25 -0.344789D-02 -0.173131D-02 -0.625106D-02 -0.184303D-02  0.823526D-03
     26 -0.327707D-02 -0.241996D-01 -0.201991D-01 -0.192810D-03 -0.108799D-02
     27 -0.765766D-02 -0.167420D-01 -0.175335D-01  0.418077D-02 -0.542023D-02
                6             7             8             9            10 
      6  0.740645D-01
      7 -0.195726D-02  0.580954D-01
      8 -0.119738D-01 -0.227719D-03  0.808604D-01
      9 -0.153062D-01 -0.176733D-01 -0.909748D-02  0.460743D-01
     10  0.284348D-02 -0.257033D-02 -0.265489D-02 -0.277765D-02  0.516048D-01
     11  0.500707D-02  0.174271D-02 -0.724413D-02 -0.413159D-02 -0.359783D-02
     12 -0.107561D-01 -0.433630D-03  0.108314D-02  0.146783D-02  0.133291D-01
     13 -0.147463D-01 -0.115786D-01  0.170720D-01  0.147859D-02 -0.193786D-01
     14  0.262684D-02  0.171981D-01 -0.343747D-01  0.883495D-02 -0.134598D-01
     15 -0.225638D-01  0.153981D-02  0.576180D-02  0.495356D-03 -0.567438D-02
     16  0.630545D-03  0.931506D-03 -0.210148D-02  0.110407D-02 -0.558154D-02
     17 -0.906256D-04  0.255845D-02 -0.263092D-02  0.391911D-02 -0.110088D-02
     18 -0.394946D-02 -0.142740D-02  0.140970D-02 -0.118872D-02 -0.120924D-01
     19  0.326177D-03 -0.233793D-02 -0.648152D-04  0.259104D-03 -0.274823D-02
     20 -0.136741D-03 -0.652931D-02  0.147330D-02  0.475684D-02  0.343420D-02
     21 -0.348795D-02 -0.429925D-03 -0.528254D-03 -0.310290D-02  0.878947D-02
     22  0.129998D-02  0.236723D-02 -0.246149D-02  0.142710D-02 -0.460664D-02
     23  0.753771D-03 -0.100798D-02 -0.734518D-02  0.495077D-02 -0.234289D-02
     24 -0.524468D-02 -0.634706D-03  0.747682D-02 -0.185507D-01  0.198687D-04
     25 -0.292758D-03 -0.393704D-01 -0.439753D-02  0.205167D-01  0.201067D-02
     26  0.200295D-03 -0.433962D-02 -0.501850D-02  0.590420D-02  0.488361D-02
     27 -0.229249D-02  0.194454D-01  0.636801D-02 -0.960768D-02  0.529871D-02
               11            12            13            14            15 
     11  0.641015D-01
     12  0.529756D-02  0.510864D-01
     13 -0.108380D-01 -0.358146D-02  0.860291D-01
     14 -0.127162D-01 -0.179276D-02 -0.468707D-02  0.609266D-01
     15 -0.261742D-02  0.190848D-02 -0.350372D-02 -0.145516D-01  0.568941D-01
     16  0.391956D-03 -0.102683D-01 -0.148517D-01 -0.944731D-02  0.169929D-01
     17 -0.344931D-02 -0.541751D-02 -0.765674D-02 -0.104517D-01  0.157900D-01
     18 -0.128907D-02 -0.265095D-01  0.154245D-01  0.171131D-01 -0.225367D-01
     19  0.159571D-02  0.669327D-02 -0.490319D-02 -0.294081D-02  0.496298D-02
     20 -0.457481D-02 -0.546117D-02 -0.904041D-03 -0.500413D-02 -0.630673D-03
     21 -0.232141D-02 -0.808846D-02  0.705220D-03 -0.907651D-03 -0.376430D-02
     22  0.254240D-03  0.916970D-03 -0.584572D-02  0.607869D-02  0.480834D-02
     23 -0.438601D-02 -0.524653D-02  0.491313D-02 -0.874388D-03 -0.630485D-02
     24 -0.533838D-03 -0.352288D-02  0.468975D-02 -0.835757D-02 -0.105987D-01
     25 -0.276677D-02  0.100476D-02 -0.361040D-02  0.665856D-02  0.389417D-03
     26 -0.704513D-02 -0.858195D-03 -0.643755D-03  0.225137D-02 -0.830406D-03
     27 -0.150299D-02 -0.203693D-02 -0.120474D-02 -0.290120D-02 -0.119663D-02
               16            17            18            19            20 
     16  0.636921D-01
     17 -0.654050D-02  0.559405D-01
     18  0.107419D-02 -0.172041D-01  0.621690D-01
     19 -0.378442D-01  0.922626D-02 -0.490522D-03  0.633283D-01
     20  0.137577D-01 -0.328407D-02  0.185191D-02 -0.359570D-02  0.441941D-01
     21 -0.398620D-02  0.301716D-02 -0.811183D-04 -0.582217D-02 -0.157485D-01
     22 -0.140660D-02  0.332611D-02 -0.502574D-03 -0.719389D-02 -0.888498D-02
     23  0.116455D-02 -0.289038D-01 -0.478351D-02 -0.802902D-02 -0.421619D-02
     24 -0.143029D-02 -0.251522D-02 -0.315956D-02 -0.876358D-03 -0.524044D-03
     25 -0.301751D-02  0.310181D-03  0.119603D-02 -0.291081D-02  0.162350D-02
     26  0.826973D-03 -0.257533D-02 -0.412722D-03  0.279901D-02 -0.268892D-01
     27 -0.182361D-02  0.304126D-02 -0.115189D-02  0.774424D-03  0.871406D-02
               21            22            23            24            25 
     21  0.537198D-01
     22 -0.289962D-02  0.390151D-01
     23 -0.224028D-02 -0.276092D-02  0.496878D-01
     24 -0.293377D-02  0.138296D-01  0.846189D-02  0.562033D-01
     25  0.188892D-02 -0.212575D-01  0.820626D-02 -0.129538D-01  0.734469D-01
     26  0.886410D-02  0.867008D-02 -0.600052D-02  0.204159D-02 -0.872642D-02
     27  0.105022D-03 -0.135151D-01  0.315290D-02 -0.748776D-02 -0.549823D-02
               26            27 
     26  0.705649D-01
     27  0.529021D-02  0.412019D-01
 Leave Link  716 at Tue Mar  6 17:50:08 2018, MaxMem=   536870912 cpu:         0.1
 (Enter /share/apps//mg09/l103.exe)

 GradGradGradGradGradGradGradGradGradGradGradGradGradGradGradGradGradGrad
 Berny optimization.
 Search for a local minimum.
 Step number   1 out of a maximum of    2
 All quantities printed in internal units (Hartrees-Bohrs-Radians)
 Second derivative matrix not updated -- analytic derivatives used.
 ITU=  0
     Eigenvalues ---    0.01292   0.02099   0.02962   0.03650   0.04407
     Eigenvalues ---    0.04632   0.05172   0.05539   0.05757   0.06164
     Eigenvalues ---    0.06413   0.07564   0.08178   0.08645   0.10187
     Eigenvalues ---    0.10891   0.11634   0.12831   0.13170   0.13681
     Eigenvalues ---    0.14096
 Angle between quadratic step and forces=  39.21 degrees.
 Linear search not attempted -- first point.
 TrRot=  0.000007  0.000012  0.000059  0.000000  0.000005  0.000000
 Variable       Old X    -DE/DX   Delta X   Delta X   Delta X     New X
                                 (Linear)    (Quad)   (Total)
    X1        3.82593  -0.00001   0.00000   0.00030   0.00032   3.82625
    Y1        1.30116   0.00003   0.00000   0.00225   0.00227   1.30342
    Z1        2.50329  -0.00002   0.00000  -0.00096  -0.00092   2.50237
    X2       -1.01871   0.00001   0.00000   0.00071   0.00074  -1.01797
    Y2        0.60937  -0.00003   0.00000  -0.00093  -0.00092   0.60845
    Z2        4.60076   0.00006   0.00000   0.00035   0.00041   4.60117
    X3       -1.93437  -0.00004   0.00000  -0.00162  -0.00160  -1.93598
    Y3       -3.70707  -0.00004   0.00000  -0.00093  -0.00092  -3.70799
    Z3        1.40072   0.00001   0.00000   0.00010   0.00017   1.40089
    X4       -0.14473   0.00001   0.00000  -0.00050  -0.00049  -0.14521
    Y4        4.63579  -0.00001   0.00000  -0.00001   0.00000   4.63579
    Z4        1.32019   0.00006   0.00000   0.00118   0.00124   1.32144
    X5       -4.50855   0.00005   0.00000   0.00068   0.00069  -4.50786
    Y5        1.30969  -0.00002   0.00000  -0.00083  -0.00081   1.30888
    Z5        0.56783  -0.00005   0.00000  -0.00098  -0.00090   0.56693
    X6       -2.00055  -0.00002   0.00000   0.00023   0.00023  -2.00033
    Y6        3.88398   0.00004   0.00000   0.00141   0.00142   3.88540
    Z6       -3.29214   0.00004   0.00000   0.00103   0.00109  -3.29105
    X7        2.97933   0.00000   0.00000  -0.00037  -0.00038   2.97895
    Y7        2.46969   0.00000   0.00000  -0.00167  -0.00166   2.46803
    Z7       -3.01594  -0.00008   0.00000  -0.00281  -0.00276  -3.01870
    X8       -1.65943   0.00001   0.00000   0.00117   0.00116  -1.65828
    Y8       -1.40581   0.00002   0.00000   0.00071   0.00073  -1.40508
    Z8       -4.07914  -0.00003   0.00000  -0.00092  -0.00085  -4.07999
    X9        3.02670  -0.00002   0.00000  -0.00066  -0.00066   3.02604
    Y9       -3.00892   0.00001   0.00000  -0.00010  -0.00009  -3.00902
    Z9       -1.21879   0.00001   0.00000   0.00247   0.00251  -1.21627
         Item               Value     Threshold  Converged?
 Maximum Force            0.000082     0.000450     YES
 RMS     Force            0.000034     0.000300     YES
 Maximum Displacement     0.002761     0.001800     NO 
 RMS     Displacement     0.001186     0.001200     YES
 Predicted change in Energy=-4.187949D-07
 GradGradGradGradGradGradGradGradGradGradGradGradGradGradGradGradGradGrad

 Leave Link  103 at Tue Mar  6 17:50:08 2018, MaxMem=   536870912 cpu:         0.1
 (Enter /share/apps//mg09/l9999.exe)
 1\1\GINC-COMPUTE-0-11\Freq\RPBE1PBE\def2TZVP\Bi4Ge3Sn2\RODRIGO\06-Mar-
 2018\0\\#P Geom=AllCheck Guess=TCheck SCRF=Check GenChk RPBE1PBE/def2T
 ZVP Freq\\01Final_coords.xyz_09\\0,1\Bi,2.0245929108,0.6885429454,1.32
 46836829\Ge,-0.5390765306,0.3224621759,2.4346172595\Bi,-1.0236270017,-
 1.9616986181,0.7412305296\Ge,-0.0765856202,2.4531541111,0.6986168394\B
 i,-2.3858224819,0.693058542,0.3004825591\Ge,-1.0586459729,2.0553141704
 ,-1.7421278655\Sn,1.5765933249,1.3069048442,-1.5959660361\Sn,-0.878132
 8784,-0.7439210813,-2.1585881835\Bi,1.6016612497,-1.5922530897,-0.6449
 537854\\Version=ES64L-G09RevD.01\State=1-A\HF=-7517.8268341\RMSD=3.277
 e-09\RMSF=3.368e-05\ZeroPoint=0.0058789\Thermal=0.0232976\Dipole=0.074
 8998,-0.6690527,-0.0093986\DipoleDeriv=-0.0079534,0.0523186,0.1612942,
 0.0459256,0.0073194,0.0392959,0.0232104,0.0274473,-0.1163938,-0.114560
 6,-0.0182903,-0.0865134,-0.0289631,-0.0710978,0.0349807,-0.0462398,0.0
 271699,0.0575877,-0.009506,0.0752747,-0.0233821,0.039804,-0.0398748,-0
 .0916763,0.0475011,-0.0273934,-0.1251192,-0.0206447,0.0059554,-0.00731
 85,0.0197,0.0309913,0.0709067,0.006342,0.0271971,-0.065172,0.1310276,-
 0.0404828,-0.0492813,-0.0473047,0.0153763,0.0239845,0.010313,0.0188871
 ,0.0147431,-0.1528562,-0.1419857,0.1009325,-0.1127584,-0.0188157,-0.14
 90144,0.07561,-0.1531394,-0.0958459,0.1595739,0.1558649,-0.1550429,0.1
 00215,0.0622738,-0.0645949,-0.1101784,-0.0558131,0.1242151,0.0783676,0
 .0501017,0.1004825,0.0491716,0.0768106,0.118365,0.0472184,0.1049389,0.
 23069,-0.0634483,-0.1387564,-0.041171,-0.0657899,-0.062983,0.0177529,-
 0.0537767,0.0307057,-0.0247051\Polar=379.2143361,3.0448839,372.997846,
 0.2141544,-3.3556273,376.3298196\PG=C01 [X(Bi4Ge3Sn2)]\NImag=0\\0.0776
 6341,-0.00623416,0.04556115,0.01261652,0.00601197,0.07112894,-0.036893
 04,-0.00258982,0.01454652,0.05992568,-0.00549168,-0.00033596,0.0047655
 0,0.00829933,0.03486739,0.01098303,0.00279093,-0.01046379,0.00091310,0
 .00082221,0.07406445,-0.00382849,-0.00649966,0.00157098,-0.00170840,-0
 .00289500,-0.00195726,0.05809544,0.00025784,-0.00355542,-0.00049998,-0
 .00542187,-0.02216485,-0.01197375,-0.00022772,0.08086044,-0.00031236,-
 0.00329098,-0.00028135,-0.00402226,-0.01184582,-0.01530619,-0.01767331
 ,-0.00909748,0.04607433,-0.02154334,0.01784264,-0.00973620,0.00281325,
 -0.00300414,0.00284348,-0.00257033,-0.00265489,-0.00277765,0.05160477,
 0.01594620,-0.01451888,0.00209168,-0.00272821,-0.01016699,0.00500707,0
 .00174271,-0.00724413,-0.00413159,-0.00359783,0.06410149,-0.00916065,0
 .00533789,-0.00354880,0.00149999,0.00705758,-0.01075613,-0.00043363,0.
 00108314,0.00146783,0.01332907,0.00529756,0.05108642,-0.00558666,0.001
 48261,0.00073817,-0.02027430,0.00126191,-0.01474630,-0.01157858,0.0170
 7196,0.00147859,-0.01937861,-0.01083800,-0.00358146,0.08602914,-0.0004
 5564,-0.00214073,-0.00006412,0.00105529,0.00238397,0.00262684,0.017198
 13,-0.03437475,0.00883495,-0.01345983,-0.01271623,-0.00179276,-0.00468
 707,0.06092660,-0.00278162,-0.00136050,0.00136217,-0.01673374,0.004743
 59,-0.02256376,0.00153981,0.00576180,0.00049536,-0.00567438,-0.0026174
 2,0.00190848,-0.00350372,-0.01455156,0.05689406,-0.00213777,0.00282239
 ,-0.00229331,0.00021570,-0.00087428,0.00063054,0.00093151,-0.00210148,
 0.00110407,-0.00558154,0.00039196,-0.01026831,-0.01485168,-0.00944731,
 0.01699291,0.06369209,0.00037450,-0.00209461,-0.00054014,-0.00049739,-
 0.00255078,-0.00009063,0.00255845,-0.00263092,0.00391911,-0.00110088,-
 0.00344931,-0.00541751,-0.00765674,-0.01045172,0.01579002,-0.00654050,
 0.05594052,0.00010120,0.00099817,-0.00359203,-0.00328303,0.00231653,-0
 .00394946,-0.00142740,0.00140970,-0.00118872,-0.01209238,-0.00128907,-
 0.02650953,0.01542450,0.01711307,-0.02253671,0.00107419,-0.01720407,0.
 06216902,-0.00480250,0.00133117,-0.00582691,-0.00058758,-0.00032180,0.
 00032618,-0.00233793,-0.00006482,0.00025910,-0.00274823,0.00159571,0.0
 0669327,-0.00490319,-0.00294081,0.00496298,-0.03784419,0.00922626,-0.0
 0049052,0.06332831,0.00030369,0.00113288,0.00717831,0.00079493,-0.0028
 3189,-0.00013674,-0.00652931,0.00147330,0.00475684,0.00343420,-0.00457
 481,-0.00546117,-0.00090404,-0.00500413,-0.00063067,0.01375770,-0.0032
 8407,0.00185191,-0.00359570,0.04419407,-0.00511188,0.00738206,-0.03236
 631,0.00686618,0.00248276,-0.00348795,-0.00042993,-0.00052825,-0.00310
 290,0.00878947,-0.00232141,-0.00808846,0.00070522,-0.00090765,-0.00376
 430,-0.00398620,0.00301716,-0.00008112,-0.00582217,-0.01574849,0.05371
 980,0.00057629,-0.00642387,-0.00536472,-0.00164827,0.00220212,0.001299
 98,0.00236723,-0.00246149,0.00142710,-0.00460664,0.00025424,0.00091697
 ,-0.00584572,0.00607869,0.00480834,-0.00140660,0.00332611,-0.00050257,
 -0.00719389,-0.00888498,-0.00289962,0.03901506,-0.00142368,0.00015117,
 0.00125584,0.00128055,0.00188709,0.00075377,-0.00100798,-0.00734518,0.
 00495077,-0.00234289,-0.00438601,-0.00524653,0.00491313,-0.00087439,-0
 .00630485,0.00116455,-0.02890379,-0.00478351,-0.00802902,-0.00421619,-
 0.00224028,-0.00276092,0.04968782,0.00132342,-0.00112750,-0.00470532,-
 0.00396753,-0.00492213,-0.00524468,-0.00063471,0.00747682,-0.01855067,
 0.00001987,-0.00053384,-0.00352288,0.00468975,-0.00835757,-0.01059866,
 -0.00143029,-0.00251522,-0.00315956,-0.00087636,-0.00052404,-0.0029337
 7,0.01382963,0.00846189,0.05620331,-0.00344789,-0.00173131,-0.00625106
 ,-0.00184303,0.00082353,-0.00029276,-0.03937044,-0.00439753,0.02051672
 ,0.00201067,-0.00276677,0.00100476,-0.00361040,0.00665856,0.00038942,-
 0.00301751,0.00031018,0.00119603,-0.00291081,0.00162350,0.00188892,-0.
 02125746,0.00820626,-0.01295380,0.07344688,-0.00327707,-0.02419960,-0.
 02019907,-0.00019281,-0.00108799,0.00020030,-0.00433962,-0.00501850,0.
 00590420,0.00488361,-0.00704513,-0.00085820,-0.00064376,0.00225137,-0.
 00083041,0.00082697,-0.00257533,-0.00041272,0.00279901,-0.02688917,0.0
 0886410,0.00867008,-0.00600052,0.00204159,-0.00872642,0.07056487,-0.00
 765766,-0.01674204,-0.01753350,0.00418077,-0.00542023,-0.00229249,0.01
 944544,0.00636801,-0.00960768,0.00529871,-0.00150299,-0.00203693,-0.00
 120474,-0.00290120,-0.00119663,-0.00182361,0.00304126,-0.00115189,0.00
 077442,0.00871406,0.00010502,-0.01351511,0.00315290,-0.00748776,-0.005
 49823,0.00529021,0.04120187\\0.00001400,-0.00003219,0.00001636,-0.0000
 0940,0.00003087,-0.00006151,0.00004197,0.00003756,-0.00001093,-0.00001
 114,0.00000553,-0.00005535,-0.00005051,0.00002066,0.00005115,0.0000151
 1,-0.00003761,-0.00004024,-0.00000439,0.00000470,0.00008208,-0.0000116
 5,-0.00002369,0.00003166,0.00001601,-0.00000583,-0.00001321\\\@


 IT IS A QUALITY OF REVOLUTIONS NOT TO GO BY OLD LINES OR OLD LAWS,
 BUT TO BREAK UP BOTH, AND MAKE NEW ONES.
                                              -- A. LINCOLN (1848)
 Job cpu time:       0 days  8 hours 29 minutes 38.6 seconds.
 File lengths (MBytes):  RWF=    299 Int=      0 D2E=      0 Chk=     16 Scr=      1
 Normal termination of Gaussian 09 at Tue Mar  6 17:50:10 2018.
