 Entering Gaussian System, Link 0=/share/apps/mg09/g09
 Initial command:
 /share/apps//mg09/l1.exe "/state/partition1/gauss_tmp/Gau-20519.inp" -scrdir="/state/partition1/gauss_tmp/"
 Entering Link 1 = /share/apps//mg09/l1.exe PID=     20521.
  
 Copyright (c) 1988,1990,1992,1993,1995,1998,2003,2009,2013,
            Gaussian, Inc.  All Rights Reserved.
  
 This is part of the Gaussian(R) 09 program.  It is based on
 the Gaussian(R) 03 system (copyright 2003, Gaussian, Inc.),
 the Gaussian(R) 98 system (copyright 1998, Gaussian, Inc.),
 the Gaussian(R) 94 system (copyright 1995, Gaussian, Inc.),
 the Gaussian 92(TM) system (copyright 1992, Gaussian, Inc.),
 the Gaussian 90(TM) system (copyright 1990, Gaussian, Inc.),
 the Gaussian 88(TM) system (copyright 1988, Gaussian, Inc.),
 the Gaussian 86(TM) system (copyright 1986, Carnegie Mellon
 University), and the Gaussian 82(TM) system (copyright 1983,
 Carnegie Mellon University). Gaussian is a federally registered
 trademark of Gaussian, Inc.
  
 This software contains proprietary and confidential information,
 including trade secrets, belonging to Gaussian, Inc.
  
 This software is provided under written license and may be
 used, copied, transmitted, or stored only in accord with that
 written license.
  
 The following legend is applicable only to US Government
 contracts under FAR:
  
                    RESTRICTED RIGHTS LEGEND
  
 Use, reproduction and disclosure by the US Government is
 subject to restrictions as set forth in subparagraphs (a)
 and (c) of the Commercial Computer Software - Restricted
 Rights clause in FAR 52.227-19.
  
 Gaussian, Inc.
 340 Quinnipiac St., Bldg. 40, Wallingford CT 06492
  
  
 ---------------------------------------------------------------
 Warning -- This program may not be used in any manner that
 competes with the business of Gaussian, Inc. or will provide
 assistance to any competitor of Gaussian, Inc.  The licensee
 of this program is prohibited from giving any competitor of
 Gaussian, Inc. access to this program.  By using this program,
 the user acknowledges that Gaussian, Inc. is engaged in the
 business of creating and licensing software in the field of
 computational chemistry and represents and warrants to the
 licensee that it is not a competitor of Gaussian, Inc. and that
 it will not use this program in any manner prohibited above.
 ---------------------------------------------------------------
  

 Cite this work as:
 Gaussian 09, Revision D.01,
 M. J. Frisch, G. W. Trucks, H. B. Schlegel, G. E. Scuseria, 
 M. A. Robb, J. R. Cheeseman, G. Scalmani, V. Barone, B. Mennucci, 
 G. A. Petersson, H. Nakatsuji, M. Caricato, X. Li, H. P. Hratchian, 
 A. F. Izmaylov, J. Bloino, G. Zheng, J. L. Sonnenberg, M. Hada, 
 M. Ehara, K. Toyota, R. Fukuda, J. Hasegawa, M. Ishida, T. Nakajima, 
 Y. Honda, O. Kitao, H. Nakai, T. Vreven, J. A. Montgomery, Jr., 
 J. E. Peralta, F. Ogliaro, M. Bearpark, J. J. Heyd, E. Brothers, 
 K. N. Kudin, V. N. Staroverov, T. Keith, R. Kobayashi, J. Normand, 
 K. Raghavachari, A. Rendell, J. C. Burant, S. S. Iyengar, J. Tomasi, 
 M. Cossi, N. Rega, J. M. Millam, M. Klene, J. E. Knox, J. B. Cross, 
 V. Bakken, C. Adamo, J. Jaramillo, R. Gomperts, R. E. Stratmann, 
 O. Yazyev, A. J. Austin, R. Cammi, C. Pomelli, J. W. Ochterski, 
 R. L. Martin, K. Morokuma, V. G. Zakrzewski, G. A. Voth, 
 P. Salvador, J. J. Dannenberg, S. Dapprich, A. D. Daniels, 
 O. Farkas, J. B. Foresman, J. V. Ortiz, J. Cioslowski, 
 and D. J. Fox, Gaussian, Inc., Wallingford CT, 2013.
 
 ******************************************
 Gaussian 09:  ES64L-G09RevD.01 24-Apr-2013
                 8-Mar-2018 
 ******************************************
 %NProcShared=4
 Will use up to    4 processors via shared memory.
 %LindaWorkers=compute-0-11
 %chk=Isomer_28.chk
 %NProc=4
 Will use up to    4 processors via shared memory.
 %mem=4GB
 SetLPE:  input flags=" -vv -opt "Tsnet.Node.lindarsharg: ssh" "
 SetLPE:    new flags=" -vv -opt "Tsnet.Node.lindarsharg: ssh"  -nodelist 'compute-0-11.local'"
 Will use up to    1 processors via Linda.
 ----------------------------------------------------------------------
 #p PBE1PBE/Def2TZVP scf=(maxcycle=768) opt=(cartesian,maxcycle=512) fr
 eq
 ----------------------------------------------------------------------
 1/6=512,10=7,14=-1,18=10,26=3,38=1/1,3;
 2/12=2,17=6,18=5,29=2,40=1/2;
 3/5=44,7=101,11=2,16=1,25=1,30=1,71=1,74=-13/1,2,3;
 4//1;
 5/5=2,7=768,38=5/2;
 6/7=2,8=2,9=2,10=2,28=1/1;
 7/7=1,29=1/1,2,3,16;
 1/6=512,10=7,14=-1,18=10,26=3/3(2);
 2/29=1/2;
 99/12=1/99;
 2/29=1/2;
 3/5=44,7=101,11=2,16=1,25=1,30=1,71=1,74=-13/1,2,3;
 4/5=5,16=3,69=1/1;
 5/5=2,7=768,38=5/2;
 7/7=1/1,2,3,16;
 1/6=512,14=-1,18=10,26=3/3(-5);
 2/29=1/2;
 6/7=2,8=2,9=2,10=2,19=2,28=1/1;
 99/9=1,12=1/99;
 Leave Link    1 at Thu Mar  8 05:13:28 2018, MaxMem=   536870912 cpu:         0.2
 (Enter /share/apps//mg09/l101.exe)
 ---------------------
 01Final_coords.xyz_28
 ---------------------
 Symbolic Z-matrix:
 Charge =  0 Multiplicity = 1
 83                    2.04297  -0.86481   0.82753 
 50                   -1.14987   1.911    -1.57496 
 32                    1.03298   1.10018   2.63183 
 83                   -0.41151  -2.21177  -0.42385 
 32                   -0.76472  -0.89431   2.27843 
 83                    1.13285  -0.11543  -2.01968 
 32                   -1.20451   2.00913   1.40121 
 83                   -2.59612  -0.19621   0.14434 
 50                    1.46988   2.29587  -0.02144 
 
 NAtoms=      9 NQM=        9 NQMF=       0 NMMI=      0 NMMIF=      0
                NMic=       0 NMicF=      0.
                    Isotopes and Nuclear Properties:
 (Nuclear quadrupole moments (NQMom) in fm**2, nuclear magnetic moments (NMagM)
  in nuclear magnetons)

  Atom         1           2           3           4           5           6           7           8           9
 IAtWgt=         209         118          74         209          74         209          74         209         118
 AtmWgt= 208.9804000 117.9018000  73.9211788 208.9804000  73.9211788 208.9804000  73.9211788 208.9804000 117.9018000
 NucSpn=           9           0           0           9           0           9           0           9           0
 AtZEff=   0.0000000   0.0000000   0.0000000   0.0000000   0.0000000   0.0000000   0.0000000   0.0000000   0.0000000
 NQMom=  -51.6000000   0.0000000   0.0000000 -51.6000000   0.0000000 -51.6000000   0.0000000 -51.6000000   0.0000000
 NMagM=    4.1106000   0.0000000   0.0000000   4.1106000   0.0000000   4.1106000   0.0000000   4.1106000   0.0000000
 AtZNuc=  83.0000000  50.0000000  32.0000000  83.0000000  32.0000000  83.0000000  32.0000000  83.0000000  50.0000000
 Leave Link  101 at Thu Mar  8 05:13:28 2018, MaxMem=   536870912 cpu:         1.6
 (Enter /share/apps//mg09/l103.exe)

 GradGradGradGradGradGradGradGradGradGradGradGradGradGradGradGradGradGrad
 Berny optimization.
 Initialization pass.
 No Z-matrix variables, so optimization will use Cartesian coordinates.
 Trust Radius=3.00D-01 FncErr=1.00D-07 GrdErr=1.00D-06
 Number of steps in this run=    100 maximum allowed number of steps=    100.
 GradGradGradGradGradGradGradGradGradGradGradGradGradGradGradGradGradGrad

 Leave Link  103 at Thu Mar  8 05:13:29 2018, MaxMem=   536870912 cpu:         0.1
 (Enter /share/apps//mg09/l202.exe)
 ---------------------------------------------------------------------------------------------------
                            Z-MATRIX (ANGSTROMS AND DEGREES)
   CD    Cent   Atom    N1       Length/X        N2       Alpha/Y        N3        Beta/Z          J
 ---------------------------------------------------------------------------------------------------
      1      1  Bi       0   2.042972         -0.864809          0.827534
      2      2  Sn       0  -1.149868          1.910997         -1.574957
      3      3  Ge       0   1.032980          1.100178          2.631825
      4      4  Bi       0  -0.411508         -2.211774         -0.423848
      5      5  Ge       0  -0.764719         -0.894314          2.278428
      6      6  Bi       0   1.132845         -0.115434         -2.019679
      7      7  Ge       0  -1.204513          2.009133          1.401214
      8      8  Bi       0  -2.596123         -0.196212          0.144339
      9      9  Sn       0   1.469882          2.295866         -0.021435
 ---------------------------------------------------------------------------------------------------
                         Z-Matrix orientation:                         
 ---------------------------------------------------------------------
 Center     Atomic      Atomic             Coordinates (Angstroms)
 Number     Number       Type             X           Y           Z
 ---------------------------------------------------------------------
      1         83           0        2.042972   -0.864809    0.827534
      2         50           0       -1.149868    1.910997   -1.574957
      3         32           0        1.032980    1.100178    2.631825
      4         83           0       -0.411508   -2.211774   -0.423848
      5         32           0       -0.764719   -0.894314    2.278428
      6         83           0        1.132845   -0.115434   -2.019679
      7         32           0       -1.204513    2.009133    1.401214
      8         83           0       -2.596123   -0.196212    0.144339
      9         50           0        1.469882    2.295866   -0.021435
 ---------------------------------------------------------------------
                    Distance matrix (angstroms):
                    1          2          3          4          5
     1  Bi   0.000000
     2  Sn   4.865315   0.000000
     3  Ge   2.852494   4.808250   0.000000
     4  Bi   3.066715   4.343670   4.732094   0.000000
     5  Ge   3.160553   4.781912   2.708248   3.027004   0.000000
     6  Bi   3.081642   3.084636   4.808760   3.053906   4.762471
     7  Ge   4.374335   2.978290   2.710531   4.666451   3.064788
     8  Bi   4.736558   3.080254   4.586786   3.026197   2.897537
     9  Sn   3.322506   3.069958   2.942846   4.901059   4.523280
                    6          7          8          9
     6  Bi   0.000000
     7  Ge   4.656129   0.000000
     8  Bi   4.312157   2.894799   0.000000
     9  Sn   3.149752   3.042784   4.771827   0.000000
 Stoichiometry    Bi4Ge3Sn2
 Framework group  C1[X(Bi4Ge3Sn2)]
 Deg. of freedom    21
 Full point group                 C1      NOp   1
 Largest Abelian subgroup         C1      NOp   1
 Largest concise Abelian subgroup C1      NOp   1
                         Standard orientation:                         
 ---------------------------------------------------------------------
 Center     Atomic      Atomic             Coordinates (Angstroms)
 Number     Number       Type             X           Y           Z
 ---------------------------------------------------------------------
      1         83           0        2.042972   -0.864808    0.827534
      2         50           0       -1.149869    1.910996   -1.574957
      3         32           0        1.032979    1.100179    2.631825
      4         83           0       -0.411507   -2.211774   -0.423848
      5         32           0       -0.764719   -0.894315    2.278428
      6         83           0        1.132845   -0.115433   -2.019679
      7         32           0       -1.204514    2.009132    1.401214
      8         83           0       -2.596123   -0.196214    0.144339
      9         50           0        1.469881    2.295867   -0.021435
 ---------------------------------------------------------------------
 Rotational constants (GHZ):      0.0999424      0.0903346      0.0854975
 Leave Link  202 at Thu Mar  8 05:13:29 2018, MaxMem=   536870912 cpu:         0.2
 (Enter /share/apps//mg09/l301.exe)
 Standard basis: def2TZVP (5D, 7F)
 Ernie: Thresh=  0.10000D-02 Tol=  0.10000D-05 Strict=F.
 There are   519 symmetry adapted cartesian basis functions of A   symmetry.
 There are   444 symmetry adapted basis functions of A   symmetry.
   444 basis functions,   963 primitive gaussians,   519 cartesian basis functions
   116 alpha electrons      116 beta electrons
       nuclear repulsion energy      3572.6947652509 Hartrees.
 IExCor= 1009 DFT=T Ex+Corr=PBE1PBE ExCW=0 ScaHFX=  0.250000
 ScaDFX=  0.750000  0.750000  1.000000  1.000000 ScalE2=  1.000000  1.000000
 IRadAn=      0 IRanWt=     -1 IRanGd=            0 ICorTp=0 IEmpDi=  4
 NAtoms=    9 NActive=    9 NUniq=    9 SFac= 1.00D+00 NAtFMM=   60 NAOKFM=F Big=F
 Integral buffers will be    131072 words long.
 Raffenetti 2 integral format.
 Two-electron integral symmetry is turned on.
 Leave Link  301 at Thu Mar  8 05:13:29 2018, MaxMem=   536870912 cpu:         0.3
 (Enter /share/apps//mg09/l302.exe)
 NPDir=0 NMtPBC=     1 NCelOv=     1 NCel=       1 NClECP=     1 NCelD=      1
         NCelK=      1 NCelE2=     1 NClLst=     1 CellRange=     0.0.
 One-electron integrals computed using PRISM.
   1 Symmetry operations used in ECPInt.
 ECPInt:  NShTT=   10440 NPrTT=   41973 LenC2=    9692 LenP2D=   27407.
 LDataN:  DoStor=T MaxTD1= 8 Len=  415
 NBasis=   444 RedAO= T EigKep=  1.35D-03  NBF=   444
 NBsUse=   444 1.00D-06 EigRej= -1.00D+00 NBFU=   444
 Precomputing XC quadrature grid using
 IXCGrd= 4 IRadAn=           0 IRanWt=          -1 IRanGd=           0 AccXCQ= 0.00D+00.
 Defaulting to unpruned grid for atomic number  83.
 Defaulting to unpruned grid for atomic number  83.
 Defaulting to unpruned grid for atomic number  83.
 Generated NRdTot=       0 NPtTot=           0 NUsed=           0 NTot=          32
 NSgBfM=   498   498   498   498   498 MxSgAt=     9 MxSgA2=     9.
 Leave Link  302 at Thu Mar  8 05:13:43 2018, MaxMem=   536870912 cpu:        58.1
 (Enter /share/apps//mg09/l303.exe)
 DipDrv:  MaxL=1.
 Leave Link  303 at Thu Mar  8 05:13:44 2018, MaxMem=   536870912 cpu:         0.3
 (Enter /share/apps//mg09/l401.exe)
 ExpMin= 4.62D-02 ExpMax= 4.66D+05 ExpMxC= 4.50D+03 IAcc=2 IRadAn=         4 AccDes= 0.00D+00
 Harris functional with IExCor= 1009 and IRadAn=       4 diagonalized for initial guess.
 HarFok:  IExCor= 1009 AccDes= 0.00D+00 IRadAn=         4 IDoV= 1 UseB2=F ITyADJ=14
 ICtDFT=  3500011 ScaDFX=  1.000000  1.000000  1.000000  1.000000
 Defaulting to unpruned grid for atomic number  83.
 Defaulting to unpruned grid for atomic number  83.
 Defaulting to unpruned grid for atomic number  83.
 Defaulting to unpruned grid for atomic number  83.
 FoFCou: FMM=F IPFlag=           0 FMFlag=      100000 FMFlg1=           0
         NFxFlg=           0 DoJE=T BraDBF=F KetDBF=T FulRan=T
         wScrn=  0.000000 ICntrl=     500 IOpCl=  0 I1Cent=   200000004 NGrid=           0
         NMat0=    1 NMatS0=      1 NMatT0=    0 NMatD0=    1 NMtDS0=    0 NMtDT0=    0
 Petite list used in FoFCou.
 Harris En= -7518.62238794433    
 JPrj=0 DoOrth=F DoCkMO=F.
 Leave Link  401 at Thu Mar  8 05:13:49 2018, MaxMem=   536870912 cpu:        21.8
 (Enter /share/apps//mg09/l502.exe)
 Closed shell SCF:
 Using DIIS extrapolation, IDIIS=  1040.
 Integral symmetry usage will be decided dynamically.
 IVT=     1410107 IEndB=     1410107 NGot=   536870912 MDV=   536322046
 LenX=   536322046 LenY=   536052166
 Requested convergence on RMS density matrix=1.00D-08 within 768 cycles.
 Requested convergence on MAX density matrix=1.00D-06.
 Requested convergence on             energy=1.00D-06.
 No special actions if energy rises.
 Fock matrices will be formed incrementally for  20 cycles.

 Cycle   1  Pass 1  IDiag  1:
 FoFJK:  IHMeth= 1 ICntrl=       0 DoSepK=F KAlg= 0 I1Cent=   0 FoldK=F
 IRaf= 880000000 NMat=   1 IRICut=       1 DoRegI=T DoRafI=F ISym2E= 0.
 FoFCou: FMM=F IPFlag=           0 FMFlag=      100000 FMFlg1=           0
         NFxFlg=           0 DoJE=F BraDBF=F KetDBF=F FulRan=T
         wScrn=  0.000000 ICntrl=       0 IOpCl=  0 I1Cent=           0 NGrid=           0
         NMat0=    1 NMatS0=      1 NMatT0=    0 NMatD0=    1 NMtDS0=    0 NMtDT0=    0
 Symmetry not used in FoFCou.
 Defaulting to unpruned grid for atomic number  83.
 Defaulting to unpruned grid for atomic number  83.
 Defaulting to unpruned grid for atomic number  83.
 Defaulting to unpruned grid for atomic number  83.
 E= -7517.15183766919    
 DIIS: error= 2.62D-02 at cycle   1 NSaved=   1.
 NSaved= 1 IEnMin= 1 EnMin= -7517.15183766919     IErMin= 1 ErrMin= 2.62D-02
 ErrMax= 2.62D-02  0.00D+00 EMaxC= 1.00D-01 BMatC= 1.53D+00 BMatP= 1.53D+00
 IDIUse=3 WtCom= 7.38D-01 WtEn= 2.62D-01
 Coeff-Com:  0.100D+01
 Coeff-En:   0.100D+01
 Coeff:      0.100D+01
 Gap=     0.137 Goal=   None    Shift=    0.000
 GapD=    0.137 DampG=1.000 DampE=0.500 DampFc=0.5000 IDamp=-1.
 Damping current iteration by 5.00D-01
 RMSDP=6.94D-03 MaxDP=3.50D-01              OVMax= 8.32D-01

 Cycle   2  Pass 1  IDiag  1:
 RMSU=  3.46D-03    CP:  1.01D+00
 E= -7516.34267621225     Delta-E=        0.809161456935 Rises=F Damp=T
 DIIS: error= 2.30D-02 at cycle   2 NSaved=   2.
 NSaved= 2 IEnMin= 1 EnMin= -7517.15183766919     IErMin= 2 ErrMin= 2.30D-02
 ErrMax= 2.30D-02  0.00D+00 EMaxC= 1.00D-01 BMatC= 5.61D-01 BMatP= 1.53D+00
 IDIUse=3 WtCom= 7.70D-01 WtEn= 2.30D-01
 Coeff-Com:  0.287D+00 0.713D+00
 Coeff-En:   0.721D+00 0.279D+00
 Coeff:      0.387D+00 0.613D+00
 Gap=     0.021 Goal=   None    Shift=    0.000
 RMSDP=4.61D-03 MaxDP=1.92D-01 DE= 8.09D-01 OVMax= 8.32D-01

 Cycle   3  Pass 1  IDiag  1:
 RMSU=  3.35D-03    CP:  1.00D+00  8.81D-02
 E= -7515.13597267065     Delta-E=        1.206703541606 Rises=F Damp=F
 DIIS: error= 4.80D-02 at cycle   3 NSaved=   3.
 NSaved= 3 IEnMin= 1 EnMin= -7517.15183766919     IErMin= 2 ErrMin= 2.30D-02
 ErrMax= 4.80D-02  0.00D+00 EMaxC= 1.00D-01 BMatC= 2.05D+00 BMatP= 5.61D-01
 IDIUse=2 WtCom= 0.00D+00 WtEn= 1.00D+00
 Rare condition: small coef for last iteration:  0.000D+00
 Coeff-En:   0.532D+00 0.288D+00 0.180D+00
 Coeff:      0.532D+00 0.288D+00 0.180D+00
 Gap=     0.216 Goal=   None    Shift=    0.000
 RMSDP=5.36D-03 MaxDP=1.99D-01 DE= 1.21D+00 OVMax= 5.96D-01

 Cycle   4  Pass 1  IDiag  1:
 RMSU=  2.02D-03    CP:  1.01D+00  1.11D+00 -3.80D-02
 E= -7516.35915838822     Delta-E=       -1.223185717578 Rises=F Damp=F
 DIIS: error= 3.85D-02 at cycle   4 NSaved=   4.
 NSaved= 4 IEnMin= 1 EnMin= -7517.15183766919     IErMin= 2 ErrMin= 2.30D-02
 ErrMax= 3.85D-02  0.00D+00 EMaxC= 1.00D-01 BMatC= 1.17D+00 BMatP= 5.61D-01
 IDIUse=2 WtCom= 0.00D+00 WtEn= 1.00D+00
 EnCoef did     8 forward-backward iterations
 Coeff-En:   0.515D+00 0.000D+00 0.980D-01 0.387D+00
 Coeff:      0.515D+00 0.000D+00 0.980D-01 0.387D+00
 Gap=     0.108 Goal=   None    Shift=    0.000
 RMSDP=3.13D-03 MaxDP=1.28D-01 DE=-1.22D+00 OVMax= 3.85D-01

 Cycle   5  Pass 1  IDiag  1:
 RMSU=  1.28D-03    CP:  1.00D+00  4.17D-01  3.31D-01  5.34D-01
 E= -7517.68521738297     Delta-E=       -1.326058994744 Rises=F Damp=F
 DIIS: error= 8.54D-03 at cycle   5 NSaved=   5.
 NSaved= 5 IEnMin= 5 EnMin= -7517.68521738297     IErMin= 5 ErrMin= 8.54D-03
 ErrMax= 8.54D-03  0.00D+00 EMaxC= 1.00D-01 BMatC= 1.74D-01 BMatP= 5.61D-01
 IDIUse=3 WtCom= 9.15D-01 WtEn= 8.54D-02
 Coeff-Com:  0.338D+00-0.380D+00-0.140D+00 0.380D+00 0.801D+00
 Coeff-En:   0.000D+00 0.000D+00 0.000D+00 0.869D-01 0.913D+00
 Coeff:      0.310D+00-0.348D+00-0.128D+00 0.355D+00 0.811D+00
 Gap=     0.136 Goal=   None    Shift=    0.000
 RMSDP=1.37D-03 MaxDP=5.11D-02 DE=-1.33D+00 OVMax= 1.56D-01

 Cycle   6  Pass 1  IDiag  1:
 RMSU=  6.87D-04    CP:  1.00D+00  4.47D-01  5.40D-02  6.67D-01  4.66D-01
 E= -7517.74180261112     Delta-E=       -0.056585228156 Rises=F Damp=F
 DIIS: error= 5.77D-03 at cycle   6 NSaved=   6.
 NSaved= 6 IEnMin= 6 EnMin= -7517.74180261112     IErMin= 6 ErrMin= 5.77D-03
 ErrMax= 5.77D-03  0.00D+00 EMaxC= 1.00D-01 BMatC= 5.99D-02 BMatP= 1.74D-01
 IDIUse=3 WtCom= 9.42D-01 WtEn= 5.77D-02
 Coeff-Com:  0.109D+00-0.768D-01-0.618D-01 0.515D-01 0.504D+00 0.474D+00
 Coeff-En:   0.000D+00 0.000D+00 0.000D+00 0.000D+00 0.395D+00 0.605D+00
 Coeff:      0.103D+00-0.724D-01-0.582D-01 0.485D-01 0.498D+00 0.481D+00
 Gap=     0.130 Goal=   None    Shift=    0.000
 RMSDP=8.34D-04 MaxDP=2.90D-02 DE=-5.66D-02 OVMax= 9.51D-02

 Cycle   7  Pass 1  IDiag  1:
 RMSU=  3.82D-04    CP:  1.00D+00  3.98D-01  1.20D-01  5.71D-01  7.61D-01
                    CP:  2.17D-01
 E= -7517.79534360488     Delta-E=       -0.053540993751 Rises=F Damp=F
 DIIS: error= 3.26D-03 at cycle   7 NSaved=   7.
 NSaved= 7 IEnMin= 7 EnMin= -7517.79534360488     IErMin= 7 ErrMin= 3.26D-03
 ErrMax= 3.26D-03  0.00D+00 EMaxC= 1.00D-01 BMatC= 1.51D-02 BMatP= 5.99D-02
 IDIUse=3 WtCom= 9.67D-01 WtEn= 3.26D-02
 Coeff-Com:  0.196D-01 0.911D-02-0.836D-02-0.208D-01 0.225D+00 0.392D+00
 Coeff-Com:  0.384D+00
 Coeff-En:   0.000D+00 0.000D+00 0.000D+00 0.000D+00 0.000D+00 0.252D+00
 Coeff-En:   0.748D+00
 Coeff:      0.190D-01 0.881D-02-0.808D-02-0.201D-01 0.218D+00 0.387D+00
 Coeff:      0.396D+00
 Gap=     0.128 Goal=   None    Shift=    0.000
 RMSDP=3.94D-04 MaxDP=1.43D-02 DE=-5.35D-02 OVMax= 4.74D-02

 Cycle   8  Pass 1  IDiag  1:
 RMSU=  1.58D-04    CP:  1.00D+00  3.90D-01  1.41D-01  5.69D-01  7.11D-01
                    CP:  5.42D-01  3.07D-01
 E= -7517.81298387283     Delta-E=       -0.017640267950 Rises=F Damp=F
 DIIS: error= 1.17D-03 at cycle   8 NSaved=   8.
 NSaved= 8 IEnMin= 8 EnMin= -7517.81298387283     IErMin= 8 ErrMin= 1.17D-03
 ErrMax= 1.17D-03  0.00D+00 EMaxC= 1.00D-01 BMatC= 1.77D-03 BMatP= 1.51D-02
 IDIUse=3 WtCom= 9.88D-01 WtEn= 1.17D-02
 Coeff-Com: -0.122D-02 0.955D-02 0.117D-02-0.138D-01 0.785D-01 0.200D+00
 Coeff-Com:  0.295D+00 0.430D+00
 Coeff-En:   0.000D+00 0.000D+00 0.000D+00 0.000D+00 0.000D+00 0.000D+00
 Coeff-En:   0.134D+00 0.866D+00
 Coeff:     -0.121D-02 0.944D-02 0.116D-02-0.136D-01 0.776D-01 0.198D+00
 Coeff:      0.293D+00 0.435D+00
 Gap=     0.124 Goal=   None    Shift=    0.000
 RMSDP=1.25D-04 MaxDP=7.06D-03 DE=-1.76D-02 OVMax= 1.32D-02

 Cycle   9  Pass 1  IDiag  1:
 RMSU=  4.46D-05    CP:  1.00D+00  3.97D-01  1.31D-01  5.73D-01  7.11D-01
                    CP:  5.10D-01  4.48D-01  4.20D-01
 E= -7517.81505935279     Delta-E=       -0.002075479970 Rises=F Damp=F
 DIIS: error= 2.62D-04 at cycle   9 NSaved=   9.
 NSaved= 9 IEnMin= 9 EnMin= -7517.81505935279     IErMin= 9 ErrMin= 2.62D-04
 ErrMax= 2.62D-04  0.00D+00 EMaxC= 1.00D-01 BMatC= 1.15D-04 BMatP= 1.77D-03
 IDIUse=3 WtCom= 9.97D-01 WtEn= 2.62D-03
 Coeff-Com: -0.221D-02 0.310D-02 0.668D-03-0.391D-02 0.210D-01 0.701D-01
 Coeff-Com:  0.130D+00 0.269D+00 0.512D+00
 Coeff-En:   0.000D+00 0.000D+00 0.000D+00 0.000D+00 0.000D+00 0.000D+00
 Coeff-En:   0.000D+00 0.000D+00 0.100D+01
 Coeff:     -0.220D-02 0.309D-02 0.666D-03-0.390D-02 0.210D-01 0.699D-01
 Coeff:      0.130D+00 0.268D+00 0.514D+00
 Gap=     0.124 Goal=   None    Shift=    0.000
 RMSDP=2.99D-05 MaxDP=2.30D-03 DE=-2.08D-03 OVMax= 3.60D-03

 Cycle  10  Pass 1  IDiag  1:
 RMSU=  1.91D-05    CP:  1.00D+00  3.98D-01  1.31D-01  5.76D-01  7.14D-01
                    CP:  5.11D-01  4.57D-01  5.08D-01  6.33D-01
 E= -7517.81514396330     Delta-E=       -0.000084610501 Rises=F Damp=F
 DIIS: error= 1.24D-04 at cycle  10 NSaved=  10.
 NSaved=10 IEnMin=10 EnMin= -7517.81514396330     IErMin=10 ErrMin= 1.24D-04
 ErrMax= 1.24D-04  0.00D+00 EMaxC= 1.00D-01 BMatC= 1.73D-05 BMatP= 1.15D-04
 IDIUse=3 WtCom= 9.99D-01 WtEn= 1.24D-03
 Coeff-Com: -0.127D-02 0.150D-02 0.155D-03-0.133D-02 0.520D-02 0.221D-01
 Coeff-Com:  0.487D-01 0.125D+00 0.329D+00 0.471D+00
 Coeff-En:   0.000D+00 0.000D+00 0.000D+00 0.000D+00 0.000D+00 0.000D+00
 Coeff-En:   0.000D+00 0.000D+00 0.141D+00 0.859D+00
 Coeff:     -0.127D-02 0.150D-02 0.155D-03-0.132D-02 0.519D-02 0.220D-01
 Coeff:      0.487D-01 0.125D+00 0.328D+00 0.471D+00
 Gap=     0.124 Goal=   None    Shift=    0.000
 RMSDP=1.83D-05 MaxDP=9.60D-04 DE=-8.46D-05 OVMax= 2.26D-03

 Cycle  11  Pass 1  IDiag  1:
 RMSU=  1.12D-05    CP:  1.00D+00  3.97D-01  1.31D-01  5.76D-01  7.15D-01
                    CP:  5.11D-01  4.55D-01  5.25D-01  7.35D-01  3.06D-01
 E= -7517.81515134301     Delta-E=       -0.000007379711 Rises=F Damp=F
 DIIS: error= 1.15D-04 at cycle  11 NSaved=  11.
 NSaved=11 IEnMin=11 EnMin= -7517.81515134301     IErMin=11 ErrMin= 1.15D-04
 ErrMax= 1.15D-04  0.00D+00 EMaxC= 1.00D-01 BMatC= 1.02D-05 BMatP= 1.73D-05
 IDIUse=3 WtCom= 9.99D-01 WtEn= 1.15D-03
 Coeff-Com: -0.711D-03 0.866D-03-0.301D-04-0.426D-03-0.594D-03 0.337D-02
 Coeff-Com:  0.134D-01 0.508D-01 0.172D+00 0.407D+00 0.354D+00
 Coeff-En:   0.000D+00 0.000D+00 0.000D+00 0.000D+00 0.000D+00 0.000D+00
 Coeff-En:   0.000D+00 0.000D+00 0.000D+00 0.422D+00 0.578D+00
 Coeff:     -0.710D-03 0.865D-03-0.301D-04-0.425D-03-0.594D-03 0.336D-02
 Coeff:      0.134D-01 0.508D-01 0.172D+00 0.407D+00 0.354D+00
 Gap=     0.124 Goal=   None    Shift=    0.000
 RMSDP=9.21D-06 MaxDP=3.62D-04 DE=-7.38D-06 OVMax= 1.05D-03

 Cycle  12  Pass 1  IDiag  1:
 RMSU=  2.88D-06    CP:  1.00D+00  3.97D-01  1.31D-01  5.75D-01  7.16D-01
                    CP:  5.12D-01  4.56D-01  5.26D-01  7.22D-01  6.22D-01
                    CP:  4.50D-01
 E= -7517.81516440006     Delta-E=       -0.000013057057 Rises=F Damp=F
 DIIS: error= 1.96D-05 at cycle  12 NSaved=  12.
 NSaved=12 IEnMin=12 EnMin= -7517.81516440006     IErMin=12 ErrMin= 1.96D-05
 ErrMax= 1.96D-05  0.00D+00 EMaxC= 1.00D-01 BMatC= 5.61D-07 BMatP= 1.02D-05
 IDIUse=1 WtCom= 1.00D+00 WtEn= 0.00D+00
 Coeff-Com: -0.300D-03 0.440D-03-0.295D-04-0.974D-04-0.143D-02-0.112D-02
 Coeff-Com: -0.225D-03 0.639D-02 0.472D-01 0.161D+00 0.201D+00 0.587D+00
 Coeff:     -0.300D-03 0.440D-03-0.295D-04-0.974D-04-0.143D-02-0.112D-02
 Coeff:     -0.225D-03 0.639D-02 0.472D-01 0.161D+00 0.201D+00 0.587D+00
 Gap=     0.124 Goal=   None    Shift=    0.000
 RMSDP=1.89D-06 MaxDP=1.24D-04 DE=-1.31D-05 OVMax= 1.84D-04

 Cycle  13  Pass 1  IDiag  1:
 RMSU=  1.10D-06    CP:  1.00D+00  3.97D-01  1.31D-01  5.75D-01  7.16D-01
                    CP:  5.13D-01  4.57D-01  5.29D-01  7.30D-01  6.26D-01
                    CP:  5.26D-01  7.59D-01
 E= -7517.81516494272     Delta-E=       -0.000000542652 Rises=F Damp=F
 DIIS: error= 7.01D-06 at cycle  13 NSaved=  13.
 NSaved=13 IEnMin=13 EnMin= -7517.81516494272     IErMin=13 ErrMin= 7.01D-06
 ErrMax= 7.01D-06  0.00D+00 EMaxC= 1.00D-01 BMatC= 9.26D-08 BMatP= 5.61D-07
 IDIUse=1 WtCom= 1.00D+00 WtEn= 0.00D+00
 Coeff-Com: -0.104D-03 0.177D-03-0.141D-04-0.313D-04-0.622D-03-0.406D-03
 Coeff-Com: -0.113D-02-0.447D-02 0.116D-02 0.157D-01 0.458D-01 0.288D+00
 Coeff-Com:  0.656D+00
 Coeff:     -0.104D-03 0.177D-03-0.141D-04-0.313D-04-0.622D-03-0.406D-03
 Coeff:     -0.113D-02-0.447D-02 0.116D-02 0.157D-01 0.458D-01 0.288D+00
 Coeff:      0.656D+00
 Gap=     0.124 Goal=   None    Shift=    0.000
 RMSDP=8.61D-07 MaxDP=5.46D-05 DE=-5.43D-07 OVMax= 1.04D-04

 Cycle  14  Pass 1  IDiag  1:
 RMSU=  4.58D-07    CP:  1.00D+00  3.97D-01  1.31D-01  5.75D-01  7.16D-01
                    CP:  5.13D-01  4.57D-01  5.28D-01  7.37D-01  6.28D-01
                    CP:  5.34D-01  8.72D-01  7.63D-01
 E= -7517.81516505372     Delta-E=       -0.000000111004 Rises=F Damp=F
 DIIS: error= 2.56D-06 at cycle  14 NSaved=  14.
 NSaved=14 IEnMin=14 EnMin= -7517.81516505372     IErMin=14 ErrMin= 2.56D-06
 ErrMax= 2.56D-06  0.00D+00 EMaxC= 1.00D-01 BMatC= 9.94D-09 BMatP= 9.26D-08
 IDIUse=1 WtCom= 1.00D+00 WtEn= 0.00D+00
 Coeff-Com: -0.303D-04 0.615D-04-0.493D-05-0.127D-04-0.164D-03 0.780D-05
 Coeff-Com: -0.434D-03-0.338D-02-0.571D-02-0.130D-01-0.303D-02 0.623D-01
 Coeff-Com:  0.336D+00 0.628D+00
 Coeff:     -0.303D-04 0.615D-04-0.493D-05-0.127D-04-0.164D-03 0.780D-05
 Coeff:     -0.434D-03-0.338D-02-0.571D-02-0.130D-01-0.303D-02 0.623D-01
 Coeff:      0.336D+00 0.628D+00
 Gap=     0.124 Goal=   None    Shift=    0.000
 RMSDP=3.13D-07 MaxDP=1.44D-05 DE=-1.11D-07 OVMax= 3.15D-05

 Cycle  15  Pass 1  IDiag  1:
 RMSU=  1.34D-07    CP:  1.00D+00  3.97D-01  1.31D-01  5.75D-01  7.16D-01
                    CP:  5.13D-01  4.57D-01  5.28D-01  7.38D-01  6.32D-01
                    CP:  5.42D-01  8.83D-01  8.93D-01  7.07D-01
 E= -7517.81516506569     Delta-E=       -0.000000011965 Rises=F Damp=F
 DIIS: error= 9.02D-07 at cycle  15 NSaved=  15.
 NSaved=15 IEnMin=15 EnMin= -7517.81516506569     IErMin=15 ErrMin= 9.02D-07
 ErrMax= 9.02D-07  0.00D+00 EMaxC= 1.00D-01 BMatC= 1.25D-09 BMatP= 9.94D-09
 IDIUse=1 WtCom= 1.00D+00 WtEn= 0.00D+00
 Coeff-Com: -0.374D-05 0.703D-05-0.182D-05-0.731D-06 0.288D-05 0.107D-03
 Coeff-Com: -0.221D-04-0.129D-02-0.404D-02-0.106D-01-0.988D-02-0.899D-02
 Coeff-Com:  0.873D-01 0.329D+00 0.618D+00
 Coeff:     -0.374D-05 0.703D-05-0.182D-05-0.731D-06 0.288D-05 0.107D-03
 Coeff:     -0.221D-04-0.129D-02-0.404D-02-0.106D-01-0.988D-02-0.899D-02
 Coeff:      0.873D-01 0.329D+00 0.618D+00
 Gap=     0.124 Goal=   None    Shift=    0.000
 RMSDP=1.16D-07 MaxDP=5.54D-06 DE=-1.20D-08 OVMax= 1.31D-05

 Cycle  16  Pass 1  IDiag  1:
 RMSU=  5.21D-08    CP:  1.00D+00  3.97D-01  1.31D-01  5.75D-01  7.16D-01
                    CP:  5.13D-01  4.57D-01  5.28D-01  7.38D-01  6.33D-01
                    CP:  5.44D-01  8.92D-01  8.89D-01  8.32D-01  7.70D-01
 E= -7517.81516506682     Delta-E=       -0.000000001133 Rises=F Damp=F
 DIIS: error= 1.59D-07 at cycle  16 NSaved=  16.
 NSaved=16 IEnMin=16 EnMin= -7517.81516506682     IErMin=16 ErrMin= 1.59D-07
 ErrMax= 1.59D-07  0.00D+00 EMaxC= 1.00D-01 BMatC= 6.84D-11 BMatP= 1.25D-09
 IDIUse=1 WtCom= 1.00D+00 WtEn= 0.00D+00
 Coeff-Com: -0.894D-06 0.173D-05-0.124D-06-0.538D-06 0.124D-04 0.503D-04
 Coeff-Com:  0.319D-04-0.251D-03-0.128D-02-0.333D-02-0.396D-02-0.101D-01
 Coeff-Com:  0.993D-02 0.108D+00 0.310D+00 0.591D+00
 Coeff:     -0.894D-06 0.173D-05-0.124D-06-0.538D-06 0.124D-04 0.503D-04
 Coeff:      0.319D-04-0.251D-03-0.128D-02-0.333D-02-0.396D-02-0.101D-01
 Coeff:      0.993D-02 0.108D+00 0.310D+00 0.591D+00
 Gap=     0.124 Goal=   None    Shift=    0.000
 RMSDP=3.06D-08 MaxDP=2.44D-06 DE=-1.13D-09 OVMax= 3.02D-06

 Cycle  17  Pass 1  IDiag  1:
 RMSU=  1.90D-08    CP:  1.00D+00  3.97D-01  1.31D-01  5.75D-01  7.16D-01
                    CP:  5.13D-01  4.57D-01  5.28D-01  7.38D-01  6.33D-01
                    CP:  5.44D-01  8.93D-01  8.97D-01  8.24D-01  8.34D-01
                    CP:  6.66D-01
 E= -7517.81516506686     Delta-E=       -0.000000000045 Rises=F Damp=F
 DIIS: error= 1.00D-07 at cycle  17 NSaved=  17.
 NSaved=17 IEnMin=17 EnMin= -7517.81516506686     IErMin=17 ErrMin= 1.00D-07
 ErrMax= 1.00D-07  0.00D+00 EMaxC= 1.00D-01 BMatC= 1.19D-11 BMatP= 6.84D-11
 IDIUse=1 WtCom= 1.00D+00 WtEn= 0.00D+00
 Coeff-Com: -0.101D-06 0.324D-06-0.786D-07-0.171D-06 0.803D-05 0.215D-04
 Coeff-Com:  0.209D-04-0.296D-04-0.413D-03-0.115D-02-0.149D-02-0.555D-02
 Coeff-Com: -0.197D-02 0.353D-01 0.127D+00 0.353D+00 0.496D+00
 Coeff:     -0.101D-06 0.324D-06-0.786D-07-0.171D-06 0.803D-05 0.215D-04
 Coeff:      0.209D-04-0.296D-04-0.413D-03-0.115D-02-0.149D-02-0.555D-02
 Coeff:     -0.197D-02 0.353D-01 0.127D+00 0.353D+00 0.496D+00
 Gap=     0.124 Goal=   None    Shift=    0.000
 RMSDP=1.13D-08 MaxDP=6.94D-07 DE=-4.55D-11 OVMax= 1.12D-06

 Cycle  18  Pass 1  IDiag  1:
 RMSU=  6.17D-09    CP:  1.00D+00  3.97D-01  1.31D-01  5.75D-01  7.16D-01
                    CP:  5.13D-01  4.57D-01  5.28D-01  7.38D-01  6.33D-01
                    CP:  5.44D-01  8.93D-01  8.98D-01  8.32D-01  8.31D-01
                    CP:  7.66D-01  7.10D-01
 E= -7517.81516506694     Delta-E=       -0.000000000080 Rises=F Damp=F
 DIIS: error= 1.35D-08 at cycle  18 NSaved=  18.
 NSaved=18 IEnMin=18 EnMin= -7517.81516506694     IErMin=18 ErrMin= 1.35D-08
 ErrMax= 1.35D-08  0.00D+00 EMaxC= 1.00D-01 BMatC= 6.31D-13 BMatP= 1.19D-11
 IDIUse=1 WtCom= 1.00D+00 WtEn= 0.00D+00
 Coeff-Com:  0.215D-07 0.134D-07-0.346D-07 0.173D-07 0.169D-05 0.158D-05
 Coeff-Com:  0.686D-05 0.463D-04 0.721D-04 0.160D-03 0.131D-03-0.702D-03
 Coeff-Com: -0.343D-02-0.446D-02 0.155D-02 0.663D-01 0.205D+00 0.735D+00
 Coeff:      0.215D-07 0.134D-07-0.346D-07 0.173D-07 0.169D-05 0.158D-05
 Coeff:      0.686D-05 0.463D-04 0.721D-04 0.160D-03 0.131D-03-0.702D-03
 Coeff:     -0.343D-02-0.446D-02 0.155D-02 0.663D-01 0.205D+00 0.735D+00
 Gap=     0.124 Goal=   None    Shift=    0.000
 RMSDP=3.06D-09 MaxDP=1.70D-07 DE=-8.00D-11 OVMax= 3.37D-07

 SCF Done:  E(RPBE1PBE) =  -7517.81516507     A.U. after   18 cycles
            NFock= 18  Conv=0.31D-08     -V/T= 2.1285
 KE= 6.661948779745D+03 PE=-2.473666591789D+04 EE= 6.984207207825D+03
 Leave Link  502 at Thu Mar  8 05:41:50 2018, MaxMem=   536870912 cpu:      6603.9
 (Enter /share/apps//mg09/l601.exe)
 Copying SCF densities to generalized density rwf, IOpCl= 0 IROHF=0.

 **********************************************************************

            Population analysis using the SCF density.

 **********************************************************************

 Orbital symmetries:
       Occupied  (A) (A) (A) (A) (A) (A) (A) (A) (A) (A) (A) (A)
                 (A) (A) (A) (A) (A) (A) (A) (A) (A) (A) (A) (A)
                 (A) (A) (A) (A) (A) (A) (A) (A) (A) (A) (A) (A)
                 (A) (A) (A) (A) (A) (A) (A) (A) (A) (A) (A) (A)
                 (A) (A) (A) (A) (A) (A) (A) (A) (A) (A) (A) (A)
                 (A) (A) (A) (A) (A) (A) (A) (A) (A) (A) (A) (A)
                 (A) (A) (A) (A) (A) (A) (A) (A) (A) (A) (A) (A)
                 (A) (A) (A) (A) (A) (A) (A) (A) (A) (A) (A) (A)
                 (A) (A) (A) (A) (A) (A) (A) (A) (A) (A) (A) (A)
                 (A) (A) (A) (A) (A) (A) (A) (A)
       Virtual   (A) (A) (A) (A) (A) (A) (A) (A) (A) (A) (A) (A)
                 (A) (A) (A) (A) (A) (A) (A) (A) (A) (A) (A) (A)
                 (A) (A) (A) (A) (A) (A) (A) (A) (A) (A) (A) (A)
                 (A) (A) (A) (A) (A) (A) (A) (A) (A) (A) (A) (A)
                 (A) (A) (A) (A) (A) (A) (A) (A) (A) (A) (A) (A)
                 (A) (A) (A) (A) (A) (A) (A) (A) (A) (A) (A) (A)
                 (A) (A) (A) (A) (A) (A) (A) (A) (A) (A) (A) (A)
                 (A) (A) (A) (A) (A) (A) (A) (A) (A) (A) (A) (A)
                 (A) (A) (A) (A) (A) (A) (A) (A) (A) (A) (A) (A)
                 (A) (A) (A) (A) (A) (A) (A) (A) (A) (A) (A) (A)
                 (A) (A) (A) (A) (A) (A) (A) (A) (A) (A) (A) (A)
                 (A) (A) (A) (A) (A) (A) (A) (A) (A) (A) (A) (A)
                 (A) (A) (A) (A) (A) (A) (A) (A) (A) (A) (A) (A)
                 (A) (A) (A) (A) (A) (A) (A) (A) (A) (A) (A) (A)
                 (A) (A) (A) (A) (A) (A) (A) (A) (A) (A) (A) (A)
                 (A) (A) (A) (A) (A) (A) (A) (A) (A) (A) (A) (A)
                 (A) (A) (A) (A) (A) (A) (A) (A) (A) (A) (A) (A)
                 (A) (A) (A) (A) (A) (A) (A) (A) (A) (A) (A) (A)
                 (A) (A) (A) (A) (A) (A) (A) (A) (A) (A) (A) (A)
                 (A) (A) (A) (A) (A) (A) (A) (A) (A) (A) (A) (A)
                 (A) (A) (A) (A) (A) (A) (A) (A) (A) (A) (A) (A)
                 (A) (A) (A) (A) (A) (A) (A) (A) (A) (A) (A) (A)
                 (A) (A) (A) (A) (A) (A) (A) (A) (A) (A) (A) (A)
                 (A) (A) (A) (A) (A) (A) (A) (A) (A) (A) (A) (A)
                 (A) (A) (A) (A) (A) (A) (A) (A) (A) (A) (A) (A)
                 (A) (A) (A) (A) (A) (A) (A) (A) (A) (A) (A) (A)
                 (A) (A) (A) (A) (A) (A) (A) (A) (A) (A) (A) (A)
                 (A) (A) (A) (A)
 The electronic state is 1-A.
 Alpha  occ. eigenvalues -- -399.10511-399.09154-399.08977 -49.92052 -49.90723
 Alpha  occ. eigenvalues --  -49.90590 -44.40164 -44.40104 -44.40061 -44.38815
 Alpha  occ. eigenvalues --  -44.38774 -44.38749 -44.38672 -44.38647 -44.38606
 Alpha  occ. eigenvalues --   -6.28549  -6.27227  -6.27108  -6.02918  -6.02693
 Alpha  occ. eigenvalues --   -6.01627  -6.01203  -5.13346  -5.12597  -4.44076
 Alpha  occ. eigenvalues --   -4.43884  -4.43737  -4.42703  -4.42574  -4.42572
 Alpha  occ. eigenvalues --   -4.42484  -4.42474  -4.42342  -3.75207  -3.75125
 Alpha  occ. eigenvalues --   -3.74957  -3.74845  -3.74841  -3.74694  -3.73954
 Alpha  occ. eigenvalues --   -3.73822  -3.73543  -3.73503  -3.73298  -3.73178
 Alpha  occ. eigenvalues --   -3.46674  -3.46422  -3.46290  -3.45840  -3.45687
 Alpha  occ. eigenvalues --   -3.45605  -1.23518  -1.23472  -1.23345  -1.23221
 Alpha  occ. eigenvalues --   -1.23187  -1.22188  -1.22132  -1.22060  -1.22039
 Alpha  occ. eigenvalues --   -1.22024  -1.21994  -1.21930  -1.21820  -1.21803
 Alpha  occ. eigenvalues --   -1.21716  -1.09295  -1.09101  -1.08777  -1.08758
 Alpha  occ. eigenvalues --   -1.08610  -1.08544  -1.08491  -1.08385  -1.08285
 Alpha  occ. eigenvalues --   -1.08215  -1.07539  -1.07439  -1.07246  -1.07158
 Alpha  occ. eigenvalues --   -1.07122  -1.07114  -1.07031  -1.06933  -1.06805
 Alpha  occ. eigenvalues --   -1.06736  -1.02886  -1.02797  -1.02668  -1.02582
 Alpha  occ. eigenvalues --   -1.02461  -1.01987  -1.01971  -1.01895  -1.01729
 Alpha  occ. eigenvalues --   -1.01711  -0.67479  -0.61616  -0.58751  -0.57556
 Alpha  occ. eigenvalues --   -0.52134  -0.47748  -0.43120  -0.42213  -0.39711
 Alpha  occ. eigenvalues --   -0.29329  -0.28129  -0.26413  -0.26176  -0.25119
 Alpha  occ. eigenvalues --   -0.24672  -0.23436  -0.21908  -0.21444  -0.21091
 Alpha  occ. eigenvalues --   -0.20251
 Alpha virt. eigenvalues --   -0.07871  -0.07553  -0.07203  -0.07031  -0.06122
 Alpha virt. eigenvalues --   -0.05642  -0.05346  -0.05040  -0.03767  -0.03100
 Alpha virt. eigenvalues --   -0.02998  -0.02111  -0.01696   0.03690   0.05417
 Alpha virt. eigenvalues --    0.05821   0.06330   0.08109   0.08600   0.08880
 Alpha virt. eigenvalues --    0.09329   0.09628   0.09956   0.10353   0.10859
 Alpha virt. eigenvalues --    0.11147   0.11520   0.11659   0.12375   0.13352
 Alpha virt. eigenvalues --    0.13638   0.16082   0.16519   0.16942   0.17553
 Alpha virt. eigenvalues --    0.18364   0.18512   0.19388   0.19814   0.20089
 Alpha virt. eigenvalues --    0.20505   0.21255   0.21833   0.23190   0.23741
 Alpha virt. eigenvalues --    0.24734   0.25458   0.26271   0.26873   0.28425
 Alpha virt. eigenvalues --    0.29274   0.29870   0.30510   0.31020   0.31293
 Alpha virt. eigenvalues --    0.31764   0.32587   0.32992   0.33299   0.33781
 Alpha virt. eigenvalues --    0.34448   0.35846   0.36216   0.37037   0.38468
 Alpha virt. eigenvalues --    0.38954   0.40300   0.40759   0.41167   0.41327
 Alpha virt. eigenvalues --    0.42375   0.43105   0.43535   0.43867   0.44301
 Alpha virt. eigenvalues --    0.45442   0.46086   0.46169   0.46898   0.47463
 Alpha virt. eigenvalues --    0.48515   0.49381   0.49845   0.50689   0.51787
 Alpha virt. eigenvalues --    0.52715   0.53419   0.54343   0.54962   0.55864
 Alpha virt. eigenvalues --    0.56608   0.57263   0.58488   0.59261   0.59556
 Alpha virt. eigenvalues --    0.60328   0.60694   0.61077   0.62090   0.62254
 Alpha virt. eigenvalues --    0.63987   0.64178   0.64920   0.65784   0.66184
 Alpha virt. eigenvalues --    0.67113   0.67346   0.67862   0.69532   0.70068
 Alpha virt. eigenvalues --    0.70436   0.71712   0.72651   0.73803   0.74270
 Alpha virt. eigenvalues --    0.75183   0.75414   0.75835   0.77388   0.77821
 Alpha virt. eigenvalues --    0.79030   0.79743   0.80458   0.81372   0.82002
 Alpha virt. eigenvalues --    0.82111   0.83083   0.83655   0.84129   0.85307
 Alpha virt. eigenvalues --    0.86056   0.87138   0.88358   0.89432   0.89640
 Alpha virt. eigenvalues --    0.90407   0.91440   0.92118   0.92283   0.92798
 Alpha virt. eigenvalues --    0.94518   0.95647   0.95899   0.96967   0.97081
 Alpha virt. eigenvalues --    0.99017   0.99255   0.99629   1.00113   1.00899
 Alpha virt. eigenvalues --    1.01916   1.03458   1.04203   1.06179   1.07224
 Alpha virt. eigenvalues --    1.07916   1.08619   1.09559   1.11063   1.11683
 Alpha virt. eigenvalues --    1.11975   1.14298   1.15550   1.17180   1.17939
 Alpha virt. eigenvalues --    1.18871   1.19209   1.19952   1.20138   1.20483
 Alpha virt. eigenvalues --    1.20739   1.21242   1.21859   1.22207   1.22647
 Alpha virt. eigenvalues --    1.23381   1.23435   1.23573   1.24446   1.24917
 Alpha virt. eigenvalues --    1.25585   1.26231   1.26368   1.27205   1.27642
 Alpha virt. eigenvalues --    1.28323   1.28542   1.29566   1.29631   1.29928
 Alpha virt. eigenvalues --    1.30808   1.31133   1.32266   1.32572   1.33616
 Alpha virt. eigenvalues --    1.33751   1.36524   1.36732   1.38118   1.39157
 Alpha virt. eigenvalues --    1.39699   1.40190   1.41989   1.42243   1.43667
 Alpha virt. eigenvalues --    1.44989   1.45399   1.45766   1.47720   1.48278
 Alpha virt. eigenvalues --    1.49671   1.50628   1.52200   1.52805   1.53183
 Alpha virt. eigenvalues --    1.54027   1.54951   1.55264   1.58776   1.60646
 Alpha virt. eigenvalues --    1.65600   1.67325   1.70595   1.98965   2.06854
 Alpha virt. eigenvalues --    2.07378   2.07746   2.09124   2.13765   2.15024
 Alpha virt. eigenvalues --    2.16821   2.17008   2.17397   2.18753   2.19804
 Alpha virt. eigenvalues --    2.22290   2.22567   2.23428   2.24796   2.26934
 Alpha virt. eigenvalues --    2.28011   2.28881   2.30295   2.31305   2.31651
 Alpha virt. eigenvalues --    2.32374   2.33909   2.35707   2.38183   2.40063
 Alpha virt. eigenvalues --    2.40396   2.43825   2.44424   2.47137   2.47485
 Alpha virt. eigenvalues --    2.50135   2.50905   2.52606   2.54182   2.56019
 Alpha virt. eigenvalues --    2.58291   2.59768   2.61194   2.65172   2.65480
 Alpha virt. eigenvalues --    2.68723   2.69542   2.70856   2.72659   2.73467
 Alpha virt. eigenvalues --    2.76029   2.76872   2.78664   2.83172   2.84725
 Alpha virt. eigenvalues --    2.86245   2.88383   2.90402   2.90899   2.99252
 Alpha virt. eigenvalues --    3.20334   3.24191   3.29636   3.36528   3.38622
 Alpha virt. eigenvalues --    3.41531   3.92263   3.93359   3.98518   4.00859
 Alpha virt. eigenvalues --    4.02561   4.04900   4.08568   4.18641   4.21168
 Alpha virt. eigenvalues --    5.22422   5.34656   5.43848  35.35460  35.38927
 Alpha virt. eigenvalues --   35.40376  35.42365  35.44483  35.46669  35.47669
 Alpha virt. eigenvalues --   35.48263  35.53052  35.54491  35.59687  35.61557
 Alpha virt. eigenvalues --   35.83702  35.93954  36.00937  36.07435  36.19394
 Alpha virt. eigenvalues --   36.22556  36.93416  36.99644  37.02305  37.04877
 Alpha virt. eigenvalues --   37.08133  37.16982 113.57807 113.59391 120.20538
 Alpha virt. eigenvalues --  120.23396 120.24513 120.25372
          Condensed to atoms (all electrons):
               1          2          3          4          5          6
     1  Bi  22.262590  -0.019399   0.185969   0.161946   0.080300   0.156473
     2  Sn  -0.019399  21.432250  -0.013118  -0.017198  -0.013708   0.178261
     3  Ge   0.185969  -0.013118  31.573111  -0.018400   0.167667  -0.014907
     4  Bi   0.161946  -0.017198  -0.018400  22.375525   0.110494   0.182133
     5  Ge   0.080300  -0.013708   0.167667   0.110494  31.523845  -0.020637
     6  Bi   0.156473   0.178261  -0.014907   0.182133  -0.020637  22.457765
     7  Ge  -0.029695   0.139651   0.156864  -0.018337   0.065263  -0.015155
     8  Bi  -0.025081   0.177511  -0.020367   0.195420   0.155912  -0.025695
     9  Sn   0.078834   0.144086   0.142063  -0.018078  -0.021572   0.119944
               7          8          9
     1  Bi  -0.029695  -0.025081   0.078834
     2  Sn   0.139651   0.177511   0.144086
     3  Ge   0.156864  -0.020367   0.142063
     4  Bi  -0.018337   0.195420  -0.018078
     5  Ge   0.065263   0.155912  -0.021572
     6  Bi  -0.015155  -0.025695   0.119944
     7  Ge  31.513256   0.148321   0.117495
     8  Bi   0.148321  22.373055  -0.016139
     9  Sn   0.117495  -0.016139  21.374358
 Mulliken charges:
               1
     1  Bi   0.148063
     2  Sn  -0.008337
     3  Ge  -0.158882
     4  Bi   0.046495
     5  Ge  -0.047563
     6  Bi  -0.018184
     7  Ge  -0.077663
     8  Bi   0.037063
     9  Sn   0.079008
 Sum of Mulliken charges =   0.00000
 Mulliken charges with hydrogens summed into heavy atoms:
               1
     1  Bi   0.148063
     2  Sn  -0.008337
     3  Ge  -0.158882
     4  Bi   0.046495
     5  Ge  -0.047563
     6  Bi  -0.018184
     7  Ge  -0.077663
     8  Bi   0.037063
     9  Sn   0.079008
 Electronic spatial extent (au):  <R**2>=           6202.7225
 Charge=              0.0000 electrons
 Dipole moment (field-independent basis, Debye):
    X=              0.5231    Y=             -1.8243    Z=             -1.3580  Tot=              2.3336
 Quadrupole moment (field-independent basis, Debye-Ang):
   XX=           -215.9467   YY=           -218.2414   ZZ=           -221.6413
   XY=              0.8345   XZ=              1.0382   YZ=              0.1659
 Traceless Quadrupole moment (field-independent basis, Debye-Ang):
   XX=              2.6631   YY=              0.3684   ZZ=             -3.0315
   XY=              0.8345   XZ=              1.0382   YZ=              0.1659
 Octapole moment (field-independent basis, Debye-Ang**2):
  XXX=              8.3979  YYY=           -142.3416  ZZZ=            -99.8417  XYY=              5.1688
  XXY=            -51.0422  XXZ=            -26.7631  XZZ=              6.1873  YZZ=            -48.8817
  YYZ=            -31.6751  XYZ=             -4.6832
 Hexadecapole moment (field-independent basis, Debye-Ang**3):
 XXXX=          -3306.5109 YYYY=          -3288.5040 ZZZZ=          -3082.6575 XXXY=            -27.9823
 XXXZ=              4.2436 YYYX=             13.2402 YYYZ=             22.6366 ZZZX=            -47.0148
 ZZZY=             -8.3634 XXYY=          -1117.8136 XXZZ=          -1086.5481 YYZZ=          -1076.5934
 XXYZ=             -9.8637 YYXZ=              2.4505 ZZXY=             -2.9412
 N-N= 3.572694765251D+03 E-N=-2.473666590952D+04  KE= 6.661948779745D+03
 No NMR shielding tensors so no spin-rotation constants.
 Leave Link  601 at Thu Mar  8 05:41:52 2018, MaxMem=   536870912 cpu:         1.4
 (Enter /share/apps//mg09/l701.exe)
 Compute integral first derivatives.
 ... and contract with generalized density number  0.
   1 Symmetry operations used in ECPInt.
 ECPInt:  NShTT=   10440 NPrTT=   41973 LenC2=    9692 LenP2D=   27407.
 LDataN:  DoStor=T MaxTD1= 9 Len=  602
 Leave Link  701 at Thu Mar  8 05:42:20 2018, MaxMem=   536870912 cpu:       112.1
 (Enter /share/apps//mg09/l702.exe)
 L702 exits ... SP integral derivatives will be done elsewhere.
 Leave Link  702 at Thu Mar  8 05:42:20 2018, MaxMem=   536870912 cpu:         0.1
 (Enter /share/apps//mg09/l703.exe)
 Compute integral first derivatives, UseDBF=F ICtDFT=           0.
 Integral derivatives from FoFJK, PRISM(SPDF).
 Calling FoFJK, ICntrl=      2127 FMM=F ISym2X=0 I1Cent= 0 IOpClX= 0 NMat=1 NMatS=1 NMatT=0.
 FoFJK:  IHMeth= 1 ICntrl=    2127 DoSepK=F KAlg= 0 I1Cent=   0 FoldK=F
 IRaf=         0 NMat=   1 IRICut=       1 DoRegI=T DoRafI=F ISym2E= 0.
 FoFCou: FMM=F IPFlag=           0 FMFlag=      100000 FMFlg1=         800
         NFxFlg=           0 DoJE=F BraDBF=F KetDBF=F FulRan=T
         wScrn=  0.000000 ICntrl=    2127 IOpCl=  0 I1Cent=           0 NGrid=           0
         NMat0=    1 NMatS0=      1 NMatT0=    0 NMatD0=    1 NMtDS0=    0 NMtDT0=    0
 Symmetry not used in FoFCou.
 Defaulting to unpruned grid for atomic number  83.
 Defaulting to unpruned grid for atomic number  83.
 Defaulting to unpruned grid for atomic number  83.
 Defaulting to unpruned grid for atomic number  83.
 Leave Link  703 at Thu Mar  8 05:49:28 2018, MaxMem=   536870912 cpu:      1710.5
 (Enter /share/apps//mg09/l716.exe)
 Dipole        = 2.05788776D-01-7.17720042D-01-5.34296895D-01
 ***** Axes restored to original set *****
 -------------------------------------------------------------------
 Center     Atomic                   Forces (Hartrees/Bohr)
 Number     Number              X              Y              Z
 -------------------------------------------------------------------
      1       83          -0.007698969    0.005988788    0.000703176
      2       50           0.005693198   -0.004443169    0.010554324
      3       32          -0.010058720   -0.004433678   -0.013680789
      4       83           0.001162234    0.006718623    0.003010871
      5       32           0.005123457    0.010794778   -0.008527466
      6       83          -0.003265080    0.001842307    0.005926452
      7       32           0.011194429   -0.010857084   -0.005650844
      8       83           0.008794357    0.003275178    0.002936982
      9       50          -0.010944904   -0.008885743    0.004727294
 -------------------------------------------------------------------
 Cartesian Forces:  Max     0.013680789 RMS     0.007404507
 Force constants in Cartesian coordinates: 
                1             2             3             4             5 
      1  0.199573D+00
      2 -0.402668D-01  0.160732D+00
      3  0.113149D-01  0.126677D-01  0.157134D+00
      4 -0.542944D-03  0.696969D-03 -0.322435D-04  0.122731D+00
      5  0.667164D-02  0.178694D-02  0.311394D-02 -0.142882D-01  0.111731D+00
      6 -0.653905D-02  0.427959D-02  0.250427D-02  0.150591D-01 -0.287367D-01
      7 -0.373626D-01  0.300795D-01  0.235014D-01  0.648911D-02  0.230999D-02
      8  0.708484D-02 -0.519439D-01 -0.372152D-01 -0.966351D-03  0.361273D-02
      9 -0.862849D-02 -0.154406D-01 -0.517645D-01 -0.670079D-02  0.485302D-02
     10 -0.500099D-01 -0.254345D-01 -0.188650D-01  0.549401D-02  0.157746D-02
     11  0.987300D-02 -0.302420D-01 -0.390174D-02  0.121026D-02 -0.678152D-02
     12 -0.825112D-02 -0.162358D-01 -0.235146D-01 -0.350200D-02  0.231197D-02
     13 -0.478186D-01 -0.957105D-02  0.247875D-01  0.500068D-02 -0.917633D-03
     14  0.148241D-01 -0.199636D-01  0.138369D-02  0.368389D-02  0.218555D-02
     15 -0.803327D-03  0.136651D-01 -0.308389D-01 -0.377977D-02  0.807998D-02
     16 -0.275438D-01  0.120265D-01 -0.270503D-01 -0.358305D-01  0.198022D-01
     17  0.913361D-02 -0.231373D-01  0.155073D-01  0.177770D-01 -0.316651D-01
     18  0.643849D-02 -0.284135D-02 -0.520043D-01 -0.849750D-02  0.123288D-01
     19 -0.339076D-02  0.694098D-02 -0.199364D-02 -0.253252D-01  0.769154D-02
     20  0.109191D-01 -0.434735D-03  0.391898D-03  0.795719D-02 -0.240244D-01
     21  0.445415D-02 -0.459584D-02  0.659483D-02  0.133277D-01 -0.204909D-01
     22 -0.578191D-02  0.569822D-02 -0.396640D-02 -0.331561D-01  0.192670D-03
     23 -0.277539D-02  0.429697D-02  0.693405D-03 -0.198040D-01 -0.332209D-01
     24  0.203934D-03  0.134598D-02  0.570093D-02  0.195377D-01  0.250338D-01
     25 -0.271221D-01  0.198301D-01 -0.769619D-02 -0.448599D-01 -0.230398D-01
     26 -0.154641D-01 -0.410948D-01  0.735898D-02  0.373323D-02 -0.236244D-01
     27  0.181055D-02  0.715528D-02 -0.138119D-01 -0.254122D-01 -0.649397D-02
                6             7             8             9            10 
      6  0.138203D+00
      7 -0.590427D-02  0.148875D+00
      8 -0.169653D-02  0.471403D-02  0.150111D+00
      9 -0.199450D-02  0.224957D-01  0.259079D-01  0.190050D+00
     10 -0.346093D-02  0.751373D-02 -0.316109D-03 -0.445397D-02  0.118823D+00
     11  0.153508D-02 -0.331262D-02 -0.116436D-02 -0.768909D-02  0.123853D-01
     12  0.161653D-02 -0.446742D-02 -0.146913D-02  0.132682D-02 -0.581636D-02
     13  0.317379D-02 -0.448759D-01 -0.271447D-01  0.120212D-01 -0.197634D-01
     14  0.328108D-02 -0.194630D-01 -0.503829D-01  0.173895D-01  0.102794D-03
     15 -0.199326D-02 -0.189012D-01 -0.183459D-01 -0.401757D-01  0.121911D-01
     16  0.185457D-01  0.374079D-02 -0.161072D-03  0.392334D-02 -0.257085D-01
     17 -0.112278D-01 -0.190955D-02  0.761405D-02 -0.304190D-02 -0.168075D-01
     18 -0.262732D-01 -0.266626D-02 -0.408507D-02 -0.501606D-02  0.566135D-02
     19 -0.102190D-01 -0.578474D-01  0.267191D-01  0.101626D-02  0.511319D-02
     20  0.109490D-01  0.352258D-02 -0.358798D-01 -0.124695D-01 -0.236277D-02
     21 -0.550235D-01 -0.297170D-01  0.126306D-01 -0.413647D-01  0.393444D-03
     22 -0.786507D-02 -0.233689D-02 -0.420759D-02 -0.715958D-02 -0.439311D-01
     23  0.882118D-02 -0.237657D-02  0.965983D-02 -0.392607D-02  0.303601D-01
     24 -0.279689D-01 -0.106612D-02 -0.299227D-02  0.173205D-02  0.134858D-01
     25 -0.279023D-02 -0.241956D-01 -0.572213D-02 -0.125137D-01  0.246900D-02
     26  0.127950D-01 -0.135643D-01 -0.316271D-01 -0.558331D-02  0.495169D-03
     27 -0.290707D-01  0.167251D-01  0.272656D-01 -0.527937D-01  0.864559D-03
               11            12            13            14            15 
     11  0.159669D+00
     12  0.287942D-01  0.117505D+00
     13 -0.887747D-02  0.359714D-02  0.168076D+00
     14 -0.317549D-01 -0.315404D-01  0.226028D-01  0.168083D+00
     15  0.608896D-02 -0.591655D-01 -0.688529D-02 -0.285668D-01  0.221374D+00
     16 -0.680204D-02  0.210394D-01  0.351182D-02 -0.198068D-02  0.634197D-02
     17 -0.406465D-01  0.237646D-01  0.205882D-02  0.437442D-02 -0.175373D-02
     18 -0.745278D-02 -0.309352D-01  0.213239D-02  0.562183D-02 -0.411036D-02
     19  0.518465D-02  0.241793D-02 -0.206494D-01 -0.467048D-02  0.114373D-01
     20 -0.443980D-02 -0.866285D-03  0.158313D-01 -0.427225D-01 -0.929436D-02
     21 -0.737741D-02  0.346926D-02  0.871714D-03  0.195537D-01 -0.309113D-01
     22 -0.172934D-02 -0.402451D-02 -0.466828D-01 -0.775525D-02 -0.628477D-02
     23 -0.404987D-01 -0.238685D-02  0.126551D-01 -0.286519D-01  0.208522D-01
     24 -0.102714D-01 -0.158325D-01 -0.412221D-01  0.102245D-01 -0.564067D-01
     25 -0.793174D-02 -0.993094D-03  0.320203D-02 -0.734416D-02  0.668404D-02
     26 -0.414138D-02 -0.237223D-02 -0.663715D-02 -0.116689D-02  0.927454D-02
     27  0.274240D-03  0.552987D-02  0.152366D-02  0.265294D-02  0.222799D-02
               16            17            18            19            20 
     16  0.102720D+00
     17 -0.842003D-02  0.116290D+00
     18 -0.221985D-01  0.545739D-02  0.155817D+00
     19  0.242992D-02 -0.439556D-04  0.526010D-02  0.185088D+00
     20  0.496348D-02  0.202834D-02 -0.768711D-02 -0.242408D-01  0.196491D+00
     21  0.413915D-02  0.619838D-03 -0.133834D-02 -0.273930D-02  0.344934D-01
     22 -0.545967D-02 -0.116422D-02  0.383932D-02 -0.410663D-01  0.324722D-02
     23 -0.137986D-02  0.676178D-02 -0.163669D-02 -0.317701D-01 -0.590424D-01
     24  0.376074D-02 -0.176923D-02 -0.115667D-02 -0.212260D-01 -0.215849D-01
     25 -0.178596D-01 -0.624119D-03  0.100307D-01 -0.443517D-01 -0.198372D-01
     26 -0.180486D-01 -0.416197D-01  0.295004D-03  0.141891D-01 -0.319753D-01
     27 -0.850146D-02 -0.275565D-01 -0.349824D-01  0.160464D-01  0.606777D-02
               21            22            23            24            25 
     21  0.177200D+00
     22 -0.148210D-02  0.181615D+00
     23 -0.223167D-01  0.151069D-01  0.139246D+00
     24 -0.327777D-01  0.267415D-01 -0.634401D-03  0.120089D+00
     25  0.107523D-01 -0.320052D-02 -0.161414D-04 -0.215509D-03  0.155918D+00
     26 -0.125167D-01 -0.938858D-02  0.144970D-02  0.648011D-03  0.446851D-01
     27 -0.258481D-01  0.201575D-03  0.533950D-03  0.662014D-02 -0.325821D-02
               26            27 
     26  0.173800D+00
     27 -0.989929D-02  0.142129D+00
 Leave Link  716 at Thu Mar  8 05:49:28 2018, MaxMem=   536870912 cpu:         0.2
 (Enter /share/apps//mg09/l103.exe)

 GradGradGradGradGradGradGradGradGradGradGradGradGradGradGradGradGradGrad
 Berny optimization.
 Search for a local minimum.
 Step number   1 out of a maximum of  100
 All quantities printed in internal units (Hartrees-Bohrs-Radians)
 Second derivative matrix not updated -- first step.
 ITU=  0
     Eigenvalues ---    0.07661   0.12047   0.12407   0.12617   0.12916
     Eigenvalues ---    0.13273   0.14761   0.15469   0.15991   0.16468
     Eigenvalues ---    0.18172   0.21280   0.22234   0.23665   0.24085
     Eigenvalues ---    0.24417   0.27164   0.28766   0.30210   0.31062
     Eigenvalues ---    0.31863
 RFO step:  Lambda=-8.73998168D-03 EMin= 7.66050615D-02
 Linear search not attempted -- first point.
 TrRot=  0.000521 -0.000241 -0.003142 -1.485669 -0.000156  1.485630
 Variable       Old X    -DE/DX   Delta X   Delta X   Delta X     New X
                                 (Linear)    (Quad)   (Total)
    X1        3.86066  -0.00770   0.00000  -0.04855  -0.04811   3.81255
    Y1       -1.63425   0.00599   0.00000   0.03486   0.03471  -1.59954
    Z1        1.56381   0.00070   0.00000  -0.00768  -0.01052   1.55329
    X2       -2.17294   0.00569   0.00000   0.03867   0.03937  -2.13357
    Y2        3.61126  -0.00444   0.00000  -0.03758  -0.03819   3.57307
    Z2       -2.97624   0.01055   0.00000   0.07617   0.07244  -2.90379
    X3        1.95205  -0.01006   0.00000  -0.05630  -0.05577   1.89628
    Y3        2.07904  -0.00443   0.00000  -0.01921  -0.01876   2.06027
    Z3        4.97343  -0.01368   0.00000  -0.07465  -0.07809   4.89534
    X4       -0.77764   0.00116   0.00000   0.00913   0.00951  -0.76813
    Y4       -4.17965   0.00672   0.00000   0.05156   0.05123  -4.12842
    Z4       -0.80096   0.00301   0.00000   0.01971   0.01720  -0.78376
    X5       -1.44511   0.00512   0.00000   0.02604   0.02644  -1.41867
    Y5       -1.69001   0.01079   0.00000   0.05593   0.05640  -1.63360
    Z5        4.30560  -0.00853   0.00000  -0.04634  -0.04925   4.25636
    X6        2.14077  -0.00327   0.00000  -0.03198  -0.03142   2.10935
    Y6       -0.21814   0.00184   0.00000   0.01050   0.00959  -0.20855
    Z6       -3.81664   0.00593   0.00000   0.05146   0.04837  -3.76827
    X7       -2.27620   0.01119   0.00000   0.05455   0.05519  -2.22101
    Y7        3.79671  -0.01086   0.00000  -0.05492  -0.05466   3.74205
    Z7        2.64791  -0.00565   0.00000  -0.02867  -0.03242   2.61549
    X8       -4.90596   0.00879   0.00000   0.06355   0.06405  -4.84191
    Y8       -0.37079   0.00328   0.00000   0.01770   0.01769  -0.35309
    Z8        0.27276   0.00294   0.00000   0.00991   0.00676   0.27952
    X9        2.77767  -0.01094   0.00000  -0.05993  -0.05925   2.71843
    Y9        4.33856  -0.00889   0.00000  -0.05767  -0.05802   4.28054
    Z9       -0.04051   0.00473   0.00000   0.02928   0.02550  -0.01500
         Item               Value     Threshold  Converged?
 Maximum Force            0.013681     0.000450     NO 
 RMS     Force            0.007405     0.000300     NO 
 Maximum Displacement     0.078086     0.001800     NO 
 RMS     Displacement     0.044411     0.001200     NO 
 Predicted change in Energy=-4.603030D-03
 Lowest energy point so far.  Saving SCF results.
 GradGradGradGradGradGradGradGradGradGradGradGradGradGradGradGradGradGrad

 Leave Link  103 at Thu Mar  8 05:49:28 2018, MaxMem=   536870912 cpu:         0.2
 (Enter /share/apps//mg09/l202.exe)
                          Input orientation:                          
 ---------------------------------------------------------------------
 Center     Atomic      Atomic             Coordinates (Angstroms)
 Number     Number       Type             X           Y           Z
 ---------------------------------------------------------------------
      1         83           0        2.017513   -0.846439    0.821965
      2         50           0       -1.129036    1.890789   -1.536622
      3         32           0        1.003468    1.090250    2.590503
      4         83           0       -0.406478   -2.184665   -0.414747
      5         32           0       -0.750730   -0.864466    2.252368
      6         83           0        1.116220   -0.110361   -1.994081
      7         32           0       -1.175310    1.980207    1.384058
      8         83           0       -2.562229   -0.186849    0.147916
      9         50           0        1.438530    2.265164   -0.007940
 ---------------------------------------------------------------------
                    Distance matrix (angstroms):
                    1          2          3          4          5
     1  Bi   0.000000
     2  Sn   4.791255   0.000000
     3  Ge   2.811899   4.713979   0.000000
     4  Bi   3.032497   4.288359   4.663104   0.000000
     5  Ge   3.116014   4.700105   2.648105   2.995819   0.000000
     6  Bi   3.047008   3.042211   4.740526   3.019212   4.699627
     7  Ge   4.301162   2.922414   2.644733   4.601408   3.004396
     8  Bi   4.675835   3.034516   4.506818   2.992511   2.858218
     9  Sn   3.272008   3.011548   2.884720   4.834307   4.438066
                    6          7          8          9
     6  Bi   0.000000
     7  Ge   4.586219   0.000000
     8  Bi   4.257344   2.854421   0.000000
     9  Sn   3.113159   2.975066   4.694968   0.000000
 Stoichiometry    Bi4Ge3Sn2
 Framework group  C1[X(Bi4Ge3Sn2)]
 Deg. of freedom    21
 Full point group                 C1      NOp   1
 RotChk:  IX=0 Diff= 3.60D-02
 Largest Abelian subgroup         C1      NOp   1
 Largest concise Abelian subgroup C1      NOp   1
                         Standard orientation:                         
 ---------------------------------------------------------------------
 Center     Atomic      Atomic             Coordinates (Angstroms)
 Number     Number       Type             X           Y           Z
 ---------------------------------------------------------------------
      1         83           0        2.019340   -0.818310    0.846498
      2         50           0       -1.132289    1.841871   -1.592108
      3         32           0        0.985906    1.154829    2.562748
      4         83           0       -0.391099   -2.200668   -0.367959
      5         32           0       -0.755280   -0.817947    2.264604
      6         83           0        1.126687   -0.156440   -1.990641
      7         32           0       -1.192477    2.002149    1.325287
      8         83           0       -2.561035   -0.202595    0.136224
      9         50           0        1.426010    2.268649   -0.061623
 ---------------------------------------------------------------------
 Rotational constants (GHZ):      0.1027591      0.0930143      0.0879641
 Leave Link  202 at Thu Mar  8 05:49:30 2018, MaxMem=   536870912 cpu:         0.1
 (Enter /share/apps//mg09/l301.exe)
 Standard basis: def2TZVP (5D, 7F)
 Ernie: Thresh=  0.10000D-02 Tol=  0.10000D-05 Strict=F.
 There are   519 symmetry adapted cartesian basis functions of A   symmetry.
 There are   444 symmetry adapted basis functions of A   symmetry.
   444 basis functions,   963 primitive gaussians,   519 cartesian basis functions
   116 alpha electrons      116 beta electrons
       nuclear repulsion energy      3631.2215289231 Hartrees.
 IExCor= 1009 DFT=T Ex+Corr=PBE1PBE ExCW=0 ScaHFX=  0.250000
 ScaDFX=  0.750000  0.750000  1.000000  1.000000 ScalE2=  1.000000  1.000000
 IRadAn=      0 IRanWt=     -1 IRanGd=            0 ICorTp=0 IEmpDi=  4
 NAtoms=    9 NActive=    9 NUniq=    9 SFac= 1.00D+00 NAtFMM=   60 NAOKFM=F Big=F
 Integral buffers will be    131072 words long.
 Raffenetti 2 integral format.
 Two-electron integral symmetry is turned on.
 Leave Link  301 at Thu Mar  8 05:49:30 2018, MaxMem=   536870912 cpu:         0.3
 (Enter /share/apps//mg09/l302.exe)
 NPDir=0 NMtPBC=     1 NCelOv=     1 NCel=       1 NClECP=     1 NCelD=      1
         NCelK=      1 NCelE2=     1 NClLst=     1 CellRange=     0.0.
 One-electron integrals computed using PRISM.
   1 Symmetry operations used in ECPInt.
 ECPInt:  NShTT=   10440 NPrTT=   41973 LenC2=    9711 LenP2D=   27608.
 LDataN:  DoStor=T MaxTD1= 8 Len=  415
 NBasis=   444 RedAO= T EigKep=  1.16D-03  NBF=   444
 NBsUse=   444 1.00D-06 EigRej= -1.00D+00 NBFU=   444
 Precomputing XC quadrature grid using
 IXCGrd= 4 IRadAn=           0 IRanWt=          -1 IRanGd=           0 AccXCQ= 0.00D+00.
 Defaulting to unpruned grid for atomic number  83.
 Defaulting to unpruned grid for atomic number  83.
 Defaulting to unpruned grid for atomic number  83.
 Generated NRdTot=       0 NPtTot=           0 NUsed=           0 NTot=          32
 NSgBfM=   501   501   501   501   502 MxSgAt=     9 MxSgA2=     9.
 Leave Link  302 at Thu Mar  8 05:49:43 2018, MaxMem=   536870912 cpu:        52.6
 (Enter /share/apps//mg09/l303.exe)
 DipDrv:  MaxL=1.
 Leave Link  303 at Thu Mar  8 05:49:43 2018, MaxMem=   536870912 cpu:         0.3
 (Enter /share/apps//mg09/l401.exe)
 Initial guess from the checkpoint file:  "Isomer_28.chk"
 B after Tr=     0.000000    0.000000    0.000000
         Rot=    0.999921    0.012049    0.002167   -0.003003 Ang=   1.44 deg.
 Guess basis will be translated and rotated to current coordinates.
 JPrj=2 DoOrth=T DoCkMO=T.
 Generating alternative initial guess.
 ExpMin= 4.62D-02 ExpMax= 4.66D+05 ExpMxC= 4.50D+03 IAcc=2 IRadAn=         4 AccDes= 0.00D+00
 Harris functional with IExCor= 1009 and IRadAn=       4 diagonalized for initial guess.
 HarFok:  IExCor= 1009 AccDes= 0.00D+00 IRadAn=         4 IDoV= 1 UseB2=F ITyADJ=14
 ICtDFT=  3500011 ScaDFX=  1.000000  1.000000  1.000000  1.000000
 Defaulting to unpruned grid for atomic number  83.
 Defaulting to unpruned grid for atomic number  83.
 Defaulting to unpruned grid for atomic number  83.
 Defaulting to unpruned grid for atomic number  83.
 FoFCou: FMM=F IPFlag=           0 FMFlag=      100000 FMFlg1=           0
         NFxFlg=           0 DoJE=T BraDBF=F KetDBF=T FulRan=T
         wScrn=  0.000000 ICntrl=     500 IOpCl=  0 I1Cent=   200000004 NGrid=           0
         NMat0=    1 NMatS0=      1 NMatT0=    0 NMatD0=    1 NMtDS0=    0 NMtDT0=    0
 Petite list used in FoFCou.
 Harris En= -7518.63615535163    
 Leave Link  401 at Thu Mar  8 05:49:49 2018, MaxMem=   536870912 cpu:        23.0
 (Enter /share/apps//mg09/l502.exe)
 Closed shell SCF:
 Using DIIS extrapolation, IDIIS=  1040.
 Integral symmetry usage will be decided dynamically.
 IVT=     1410107 IEndB=     1410107 NGot=   536870912 MDV=   536322046
 LenX=   536322046 LenY=   536052166
 Requested convergence on RMS density matrix=1.00D-08 within 768 cycles.
 Requested convergence on MAX density matrix=1.00D-06.
 Requested convergence on             energy=1.00D-06.
 No special actions if energy rises.
 Fock matrices will be formed incrementally for  20 cycles.

 Cycle   1  Pass 1  IDiag  1:
 FoFJK:  IHMeth= 1 ICntrl=       0 DoSepK=F KAlg= 0 I1Cent=   0 FoldK=F
 IRaf= 880000000 NMat=   1 IRICut=       1 DoRegI=T DoRafI=F ISym2E= 0.
 FoFCou: FMM=F IPFlag=           0 FMFlag=      100000 FMFlg1=           0
         NFxFlg=           0 DoJE=F BraDBF=F KetDBF=F FulRan=T
         wScrn=  0.000000 ICntrl=       0 IOpCl=  0 I1Cent=           0 NGrid=           0
         NMat0=    1 NMatS0=      1 NMatT0=    0 NMatD0=    1 NMtDS0=    0 NMtDT0=    0
 Symmetry not used in FoFCou.
 Defaulting to unpruned grid for atomic number  83.
 Defaulting to unpruned grid for atomic number  83.
 Defaulting to unpruned grid for atomic number  83.
 Defaulting to unpruned grid for atomic number  83.
 E= -7517.82004440896    
 DIIS: error= 4.95D-03 at cycle   1 NSaved=   1.
 NSaved= 1 IEnMin= 1 EnMin= -7517.82004440896     IErMin= 1 ErrMin= 4.95D-03
 ErrMax= 4.95D-03  0.00D+00 EMaxC= 1.00D-01 BMatC= 8.28D-03 BMatP= 8.28D-03
 IDIUse=3 WtCom= 9.50D-01 WtEn= 4.95D-02
 Coeff-Com:  0.100D+01
 Coeff-En:   0.100D+01
 Coeff:      0.100D+01
 Gap=     7.498 Goal=   None    Shift=    0.000
 GapD=    7.498 DampG=2.000 DampE=1.000 DampFc=2.0000 IDamp=-1.
 RMSDP=1.83D-04 MaxDP=4.93D-03              OVMax= 2.02D-02

 Cycle   2  Pass 1  IDiag  1:
 RMSU=  1.82D-04    CP:  1.00D+00
 E= -7517.81998873886     Delta-E=        0.000055670098 Rises=F Damp=F
 DIIS: error= 1.51D-03 at cycle   2 NSaved=   2.
 NSaved= 2 IEnMin= 1 EnMin= -7517.82004440896     IErMin= 2 ErrMin= 1.51D-03
 ErrMax= 1.51D-03  0.00D+00 EMaxC= 1.00D-01 BMatC= 1.72D-03 BMatP= 8.28D-03
 IDIUse=3 WtCom= 9.85D-01 WtEn= 1.51D-02
 Coeff-Com:  0.211D+00 0.789D+00
 Coeff-En:   0.514D+00 0.486D+00
 Coeff:      0.215D+00 0.785D+00
 Gap=     0.125 Goal=   None    Shift=    0.000
 RMSDP=2.31D-04 MaxDP=9.64D-03 DE= 5.57D-05 OVMax= 1.98D-02

 Cycle   3  Pass 1  IDiag  1:
 RMSU=  2.13D-04    CP:  9.99D-01  5.34D-01
 E= -7517.81715947110     Delta-E=        0.002829267765 Rises=F Damp=F
 DIIS: error= 2.10D-03 at cycle   3 NSaved=   3.
 NSaved= 3 IEnMin= 1 EnMin= -7517.82004440896     IErMin= 2 ErrMin= 1.51D-03
 ErrMax= 2.10D-03  0.00D+00 EMaxC= 1.00D-01 BMatC= 4.48D-03 BMatP= 1.72D-03
 IDIUse=3 WtCom= 1.79D-01 WtEn= 8.21D-01
 Coeff-Com:  0.134D-01 0.614D+00 0.372D+00
 Coeff-En:   0.000D+00 0.689D+00 0.311D+00
 Coeff:      0.239D-02 0.675D+00 0.322D+00
 Gap=     0.127 Goal=   None    Shift=    0.000
 RMSDP=1.39D-04 MaxDP=5.10D-03 DE= 2.83D-03 OVMax= 1.54D-02

 Cycle   4  Pass 1  IDiag  1:
 RMSU=  6.09D-05    CP:  9.99D-01  7.88D-01  4.54D-01
 E= -7517.82111769899     Delta-E=       -0.003958227890 Rises=F Damp=F
 DIIS: error= 7.24D-04 at cycle   4 NSaved=   4.
 NSaved= 4 IEnMin= 4 EnMin= -7517.82111769899     IErMin= 4 ErrMin= 7.24D-04
 ErrMax= 7.24D-04  0.00D+00 EMaxC= 1.00D-01 BMatC= 3.90D-04 BMatP= 1.72D-03
 IDIUse=3 WtCom= 9.93D-01 WtEn= 7.24D-03
 Coeff-Com:  0.377D-03 0.454D+00 0.229D+00 0.317D+00
 Coeff-En:   0.000D+00 0.157D+00 0.000D+00 0.843D+00
 Coeff:      0.374D-03 0.451D+00 0.228D+00 0.321D+00
 Gap=     0.127 Goal=   None    Shift=    0.000
 RMSDP=4.93D-05 MaxDP=2.07D-03 DE=-3.96D-03 OVMax= 4.84D-03

 Cycle   5  Pass 1  IDiag  1:
 RMSU=  1.46D-05    CP:  9.99D-01  8.58D-01  4.22D-01  2.73D-01
 E= -7517.82144634338     Delta-E=       -0.000328644388 Rises=F Damp=F
 DIIS: error= 8.76D-05 at cycle   5 NSaved=   5.
 NSaved= 5 IEnMin= 5 EnMin= -7517.82144634338     IErMin= 5 ErrMin= 8.76D-05
 ErrMax= 8.76D-05  0.00D+00 EMaxC= 1.00D-01 BMatC= 1.47D-05 BMatP= 3.90D-04
 IDIUse=1 WtCom= 1.00D+00 WtEn= 0.00D+00
 Coeff-Com: -0.107D-02 0.222D+00 0.103D+00 0.211D+00 0.464D+00
 Coeff:     -0.107D-02 0.222D+00 0.103D+00 0.211D+00 0.464D+00
 Gap=     0.127 Goal=   None    Shift=    0.000
 RMSDP=9.87D-06 MaxDP=5.02D-04 DE=-3.29D-04 OVMax= 1.06D-03

 Cycle   6  Pass 1  IDiag  1:
 RMSU=  4.07D-06    CP:  9.99D-01  8.67D-01  4.12D-01  3.79D-01  6.48D-01
 E= -7517.82146013041     Delta-E=       -0.000013787036 Rises=F Damp=F
 DIIS: error= 1.56D-05 at cycle   6 NSaved=   6.
 NSaved= 6 IEnMin= 6 EnMin= -7517.82146013041     IErMin= 6 ErrMin= 1.56D-05
 ErrMax= 1.56D-05  0.00D+00 EMaxC= 1.00D-01 BMatC= 4.67D-07 BMatP= 1.47D-05
 IDIUse=1 WtCom= 1.00D+00 WtEn= 0.00D+00
 Coeff-Com: -0.511D-03 0.802D-01 0.386D-01 0.815D-01 0.224D+00 0.577D+00
 Coeff:     -0.511D-03 0.802D-01 0.386D-01 0.815D-01 0.224D+00 0.577D+00
 Gap=     0.127 Goal=   None    Shift=    0.000
 RMSDP=3.38D-06 MaxDP=1.28D-04 DE=-1.38D-05 OVMax= 3.68D-04

 Cycle   7  Pass 1  IDiag  1:
 RMSU=  2.88D-06    CP:  9.99D-01  8.70D-01  4.16D-01  3.75D-01  7.09D-01
                    CP:  7.00D-01
 E= -7517.82146007666     Delta-E=        0.000000053755 Rises=F Damp=F
 DIIS: error= 2.04D-05 at cycle   7 NSaved=   7.
 NSaved= 7 IEnMin= 6 EnMin= -7517.82146013041     IErMin= 6 ErrMin= 1.56D-05
 ErrMax= 2.04D-05  0.00D+00 EMaxC= 1.00D-01 BMatC= 4.90D-07 BMatP= 4.67D-07
 IDIUse=1 WtCom= 1.00D+00 WtEn= 0.00D+00
 Coeff-Com: -0.161D-03 0.944D-02 0.602D-02 0.149D-01 0.712D-01 0.514D+00
 Coeff-Com:  0.385D+00
 Coeff:     -0.161D-03 0.944D-02 0.602D-02 0.149D-01 0.712D-01 0.514D+00
 Coeff:      0.385D+00
 Gap=     0.127 Goal=   None    Shift=    0.000
 RMSDP=2.30D-06 MaxDP=1.06D-04 DE= 5.38D-08 OVMax= 2.63D-04

 Cycle   8  Pass 1  IDiag  1:
 RMSU=  9.08D-07    CP:  9.99D-01  8.71D-01  4.18D-01  3.76D-01  7.20D-01
                    CP:  1.00D+00  4.38D-01
 E= -7517.82146067682     Delta-E=       -0.000000600161 Rises=F Damp=F
 DIIS: error= 6.76D-06 at cycle   8 NSaved=   8.
 NSaved= 8 IEnMin= 8 EnMin= -7517.82146067682     IErMin= 8 ErrMin= 6.76D-06
 ErrMax= 6.76D-06  0.00D+00 EMaxC= 1.00D-01 BMatC= 5.32D-08 BMatP= 4.67D-07
 IDIUse=1 WtCom= 1.00D+00 WtEn= 0.00D+00
 Coeff-Com:  0.542D-05-0.138D-01-0.540D-02-0.852D-02-0.293D-02 0.253D+00
 Coeff-Com:  0.282D+00 0.495D+00
 Coeff:      0.542D-05-0.138D-01-0.540D-02-0.852D-02-0.293D-02 0.253D+00
 Coeff:      0.282D+00 0.495D+00
 Gap=     0.127 Goal=   None    Shift=    0.000
 RMSDP=6.68D-07 MaxDP=3.52D-05 DE=-6.00D-07 OVMax= 6.76D-05

 Cycle   9  Pass 1  IDiag  1:
 RMSU=  2.80D-07    CP:  9.99D-01  8.72D-01  4.19D-01  3.79D-01  7.29D-01
                    CP:  1.01D+00  5.63D-01  5.49D-01
 E= -7517.82146073119     Delta-E=       -0.000000054377 Rises=F Damp=F
 DIIS: error= 1.50D-06 at cycle   9 NSaved=   9.
 NSaved= 9 IEnMin= 9 EnMin= -7517.82146073119     IErMin= 9 ErrMin= 1.50D-06
 ErrMax= 1.50D-06  0.00D+00 EMaxC= 1.00D-01 BMatC= 3.23D-09 BMatP= 5.32D-08
 IDIUse=1 WtCom= 1.00D+00 WtEn= 0.00D+00
 Coeff-Com:  0.206D-04-0.907D-02-0.375D-02-0.630D-02-0.988D-02 0.953D-01
 Coeff-Com:  0.125D+00 0.287D+00 0.522D+00
 Coeff:      0.206D-04-0.907D-02-0.375D-02-0.630D-02-0.988D-02 0.953D-01
 Coeff:      0.125D+00 0.287D+00 0.522D+00
 Gap=     0.127 Goal=   None    Shift=    0.000
 RMSDP=1.72D-07 MaxDP=1.21D-05 DE=-5.44D-08 OVMax= 2.16D-05

 Cycle  10  Pass 1  IDiag  1:
 RMSU=  1.02D-07    CP:  9.99D-01  8.72D-01  4.19D-01  3.80D-01  7.34D-01
                    CP:  1.02D+00  5.60D-01  6.31D-01  8.03D-01
 E= -7517.82146073421     Delta-E=       -0.000000003016 Rises=F Damp=F
 DIIS: error= 3.32D-07 at cycle  10 NSaved=  10.
 NSaved=10 IEnMin=10 EnMin= -7517.82146073421     IErMin=10 ErrMin= 3.32D-07
 ErrMax= 3.32D-07  0.00D+00 EMaxC= 1.00D-01 BMatC= 1.32D-10 BMatP= 3.23D-09
 IDIUse=1 WtCom= 1.00D+00 WtEn= 0.00D+00
 Coeff-Com:  0.577D-05-0.193D-02-0.791D-03-0.135D-02-0.328D-02 0.124D-01
 Coeff-Com:  0.200D-01 0.575D-01 0.195D+00 0.723D+00
 Coeff:      0.577D-05-0.193D-02-0.791D-03-0.135D-02-0.328D-02 0.124D-01
 Coeff:      0.200D-01 0.575D-01 0.195D+00 0.723D+00
 Gap=     0.127 Goal=   None    Shift=    0.000
 RMSDP=8.25D-08 MaxDP=3.54D-06 DE=-3.02D-09 OVMax= 1.13D-05

 Cycle  11  Pass 1  IDiag  1:
 RMSU=  6.80D-08    CP:  9.99D-01  8.72D-01  4.19D-01  3.80D-01  7.35D-01
                    CP:  1.03D+00  5.63D-01  6.39D-01  9.03D-01  8.22D-01
 E= -7517.82146073441     Delta-E=       -0.000000000200 Rises=F Damp=F
 DIIS: error= 6.49D-07 at cycle  11 NSaved=  11.
 NSaved=11 IEnMin=11 EnMin= -7517.82146073441     IErMin=10 ErrMin= 3.32D-07
 ErrMax= 6.49D-07  0.00D+00 EMaxC= 1.00D-01 BMatC= 3.04D-10 BMatP= 1.32D-10
 IDIUse=1 WtCom= 1.00D+00 WtEn= 0.00D+00
 Coeff-Com:  0.674D-06 0.288D-03 0.129D-03 0.181D-03-0.815D-03-0.106D-01
 Coeff-Com: -0.102D-01-0.119D-01 0.633D-01 0.652D+00 0.318D+00
 Coeff:      0.674D-06 0.288D-03 0.129D-03 0.181D-03-0.815D-03-0.106D-01
 Coeff:     -0.102D-01-0.119D-01 0.633D-01 0.652D+00 0.318D+00
 Gap=     0.127 Goal=   None    Shift=    0.000
 RMSDP=5.13D-08 MaxDP=2.15D-06 DE=-2.00D-10 OVMax= 6.35D-06

 Cycle  12  Pass 1  IDiag  1:
 RMSU=  1.79D-08    CP:  9.99D-01  8.72D-01  4.19D-01  3.80D-01  7.35D-01
                    CP:  1.03D+00  5.65D-01  6.39D-01  9.15D-01  1.04D+00
                    CP:  3.97D-01
 E= -7517.82146073431     Delta-E=        0.000000000100 Rises=F Damp=F
 DIIS: error= 4.93D-08 at cycle  12 NSaved=  12.
 NSaved=12 IEnMin=11 EnMin= -7517.82146073441     IErMin=12 ErrMin= 4.93D-08
 ErrMax= 4.93D-08  0.00D+00 EMaxC= 1.00D-01 BMatC= 6.84D-12 BMatP= 1.32D-10
 IDIUse=1 WtCom= 1.00D+00 WtEn= 0.00D+00
 Coeff-Com: -0.343D-06 0.416D-03 0.184D-03 0.267D-03-0.379D-04-0.769D-02
 Coeff-Com: -0.849D-02-0.145D-01 0.752D-02 0.281D+00 0.172D+00 0.570D+00
 Coeff:     -0.343D-06 0.416D-03 0.184D-03 0.267D-03-0.379D-04-0.769D-02
 Coeff:     -0.849D-02-0.145D-01 0.752D-02 0.281D+00 0.172D+00 0.570D+00
 Gap=     0.127 Goal=   None    Shift=    0.000
 RMSDP=1.03D-08 MaxDP=5.86D-07 DE= 1.00D-10 OVMax= 1.23D-06

 Cycle  13  Pass 1  IDiag  1:
 RMSU=  6.38D-09    CP:  9.99D-01  8.72D-01  4.19D-01  3.80D-01  7.35D-01
                    CP:  1.03D+00  5.65D-01  6.42D-01  9.24D-01  1.07D+00
                    CP:  4.47D-01  7.63D-01
 E= -7517.82146073484     Delta-E=       -0.000000000528 Rises=F Damp=F
 DIIS: error= 2.11D-08 at cycle  13 NSaved=  13.
 NSaved=13 IEnMin=13 EnMin= -7517.82146073484     IErMin=13 ErrMin= 2.11D-08
 ErrMax= 2.11D-08  0.00D+00 EMaxC= 1.00D-01 BMatC= 1.12D-12 BMatP= 6.84D-12
 IDIUse=1 WtCom= 1.00D+00 WtEn= 0.00D+00
 Coeff-Com: -0.321D-06 0.215D-03 0.948D-04 0.144D-03 0.111D-03-0.310D-02
 Coeff-Com: -0.367D-02-0.697D-02-0.508D-02 0.771D-01 0.553D-01 0.332D+00
 Coeff-Com:  0.554D+00
 Coeff:     -0.321D-06 0.215D-03 0.948D-04 0.144D-03 0.111D-03-0.310D-02
 Coeff:     -0.367D-02-0.697D-02-0.508D-02 0.771D-01 0.553D-01 0.332D+00
 Coeff:      0.554D+00
 Gap=     0.127 Goal=   None    Shift=    0.000
 RMSDP=3.86D-09 MaxDP=1.97D-07 DE=-5.28D-10 OVMax= 5.24D-07

 SCF Done:  E(RPBE1PBE) =  -7517.82146073     A.U. after   13 cycles
            NFock= 13  Conv=0.39D-08     -V/T= 2.1284
 KE= 6.662173608584D+03 PE=-2.485380265959D+04 EE= 7.042586061351D+03
 Leave Link  502 at Thu Mar  8 06:09:01 2018, MaxMem=   536870912 cpu:      4598.4
 (Enter /share/apps//mg09/l701.exe)
 Compute integral first derivatives.
 ... and contract with generalized density number  0.
   1 Symmetry operations used in ECPInt.
 ECPInt:  NShTT=   10440 NPrTT=   41973 LenC2=    9711 LenP2D=   27608.
 LDataN:  DoStor=T MaxTD1= 9 Len=  602
 Leave Link  701 at Thu Mar  8 06:09:34 2018, MaxMem=   536870912 cpu:       126.1
 (Enter /share/apps//mg09/l702.exe)
 L702 exits ... SP integral derivatives will be done elsewhere.
 Leave Link  702 at Thu Mar  8 06:09:34 2018, MaxMem=   536870912 cpu:         0.1
 (Enter /share/apps//mg09/l703.exe)
 Compute integral first derivatives, UseDBF=F ICtDFT=           0.
 Integral derivatives from FoFJK, PRISM(SPDF).
 Calling FoFJK, ICntrl=      2127 FMM=F ISym2X=0 I1Cent= 0 IOpClX= 0 NMat=1 NMatS=1 NMatT=0.
 FoFJK:  IHMeth= 1 ICntrl=    2127 DoSepK=F KAlg= 0 I1Cent=   0 FoldK=F
 IRaf=         0 NMat=   1 IRICut=       1 DoRegI=T DoRafI=F ISym2E= 0.
 FoFCou: FMM=F IPFlag=           0 FMFlag=      100000 FMFlg1=         800
         NFxFlg=           0 DoJE=F BraDBF=F KetDBF=F FulRan=T
         wScrn=  0.000000 ICntrl=    2127 IOpCl=  0 I1Cent=           0 NGrid=           0
         NMat0=    1 NMatS0=      1 NMatT0=    0 NMatD0=    1 NMtDS0=    0 NMtDT0=    0
 Symmetry not used in FoFCou.
 Defaulting to unpruned grid for atomic number  83.
 Defaulting to unpruned grid for atomic number  83.
 Defaulting to unpruned grid for atomic number  83.
 Defaulting to unpruned grid for atomic number  83.
 Leave Link  703 at Thu Mar  8 06:15:15 2018, MaxMem=   536870912 cpu:      1302.9
 (Enter /share/apps//mg09/l716.exe)
 Dipole        = 2.11109468D-01-7.78946179D-01-5.36528834D-01
 ***** Axes restored to original set *****
 -------------------------------------------------------------------
 Center     Atomic                   Forces (Hartrees/Bohr)
 Number     Number              X              Y              Z
 -------------------------------------------------------------------
      1       83          -0.001468935    0.002195842    0.001951974
      2       50           0.002282898   -0.000489156    0.005031855
      3       32          -0.005694130   -0.001671490   -0.005977967
      4       83           0.000009905    0.000039246    0.001506153
      5       32           0.002864419    0.006483469   -0.004192170
      6       83          -0.000347803    0.001478671    0.000026794
      7       32           0.006606080   -0.006414713   -0.003258846
      8       83           0.001327105    0.002058108    0.002106795
      9       50          -0.005579539   -0.003679977    0.002805413
 -------------------------------------------------------------------
 Cartesian Forces:  Max     0.006606080 RMS     0.003565755
 Leave Link  716 at Thu Mar  8 06:15:15 2018, MaxMem=   536870912 cpu:         0.1
 (Enter /share/apps//mg09/l103.exe)

 GradGradGradGradGradGradGradGradGradGradGradGradGradGradGradGradGradGrad
 Berny optimization.
 Search for a local minimum.
 Step number   2 out of a maximum of  100
 All quantities printed in internal units (Hartrees-Bohrs-Radians)
 Update second derivatives using D2CorN and points    1    2
 DE= -6.30D-03 DEPred=-4.60D-03 R= 1.37D+00
 TightC=F SS=  1.41D+00  RLast= 2.31D-01 DXNew= 5.0454D-01 6.9230D-01
 Trust test= 1.37D+00 RLast= 2.31D-01 DXMaxT set to 5.05D-01
 ITU=  1  0
     Eigenvalues ---    0.07598   0.09356   0.12068   0.12412   0.12664
     Eigenvalues ---    0.12917   0.13948   0.15001   0.15933   0.16432
[...]
      X                           X  X             X     X  X                                                                        
      X                           X  X                   X  X                                                                        
      X                           X  X                      X                                                                        
      X                                                                                                                              
      X                                                                                                                              
      X                                                                                                                              
      X                                                                                                                              
      X                                                                                                                              
      X                                                                                                                              
      X                                                                                                                              
      X                                                                                                                              
      X                                                                                                                              
      X                                                                                                                              
      X                                                                                                                              
      X                                                                                                                              
 
 ***** Axes restored to original set *****
 -------------------------------------------------------------------
 Center     Atomic                   Forces (Hartrees/Bohr)
 Number     Number              X              Y              Z
 -------------------------------------------------------------------
      1       83          -0.000011007   -0.000033114   -0.000014490
      2       50           0.000023598    0.000015134   -0.000058069
      3       32           0.000027727    0.000005462    0.000000210
      4       83           0.000029049   -0.000084708   -0.000001206
      5       32          -0.000112638    0.000107783    0.000023302
      6       83           0.000026614   -0.000021347    0.000023771
      7       32           0.000021737   -0.000075453    0.000050269
      8       83           0.000030172    0.000038813   -0.000022794
      9       50          -0.000035253    0.000047431   -0.000000993
 -------------------------------------------------------------------
 Cartesian Forces:  Max     0.000112638 RMS     0.000045584
 Force constants in Cartesian coordinates: 
                1             2             3             4             5 
      1  0.726821D-01
      2 -0.134406D-01  0.533311D-01
      3  0.140815D-01  0.772379D-02  0.609664D-01
      4 -0.255608D-02  0.237897D-02 -0.707213D-02  0.565406D-01
      5 -0.114223D-02 -0.242323D-02  0.458526D-02 -0.485105D-02  0.424108D-01
      6 -0.433544D-03  0.121233D-02  0.741063D-03  0.749475D-02 -0.141572D-01
      7 -0.898384D-02  0.127206D-01  0.682316D-02 -0.462043D-02  0.717189D-04
      8  0.113331D-01 -0.197925D-01 -0.172299D-01  0.159063D-02 -0.129398D-02
      9  0.648749D-02 -0.167516D-01 -0.170223D-01  0.437339D-03 -0.137961D-02
     10 -0.291547D-01 -0.120453D-01 -0.111058D-01 -0.594110D-03  0.161103D-02
     11 -0.133367D-01 -0.105552D-01 -0.100423D-01 -0.852280D-03 -0.383463D-02
     12 -0.142479D-01 -0.115204D-01 -0.447719D-02  0.430677D-03  0.416914D-02
     13 -0.133757D-01 -0.741939D-04  0.526253D-02  0.280373D-02  0.425410D-02
     14  0.190235D-02  0.324245D-02  0.306651D-02 -0.960589D-03 -0.368199D-02
     15  0.606154D-02  0.408318D-02 -0.553115D-02  0.347342D-02  0.205456D-02
     16 -0.502024D-02  0.744487D-02 -0.922177D-02 -0.168992D-01  0.147256D-01
     17  0.625087D-02 -0.485394D-02  0.672812D-02  0.159129D-01 -0.138945D-01
     18 -0.986933D-02  0.101235D-01 -0.327595D-01  0.307559D-02 -0.390637D-02
     19 -0.612131D-02  0.418700D-02  0.538834D-02  0.301243D-03  0.182058D-02
     20 -0.269843D-04 -0.810938D-02 -0.240192D-02  0.382556D-02  0.483959D-03
     21  0.307841D-03  0.378206D-04 -0.127601D-02  0.914675D-03 -0.750146D-03
     22 -0.494565D-02 -0.275254D-02 -0.763383D-03 -0.112395D-01 -0.115310D-01
     23  0.618611D-02  0.355306D-02  0.253282D-02 -0.132959D-01 -0.170754D-01
     24 -0.397664D-03  0.124375D-02 -0.152547D-02  0.645544D-02  0.109917D-01
     25 -0.252456D-02  0.158118D-02 -0.339248D-02 -0.237362D-01 -0.495874D-02
     26  0.227407D-02 -0.143923D-01  0.503759D-02 -0.374828D-02 -0.691076D-03
     27 -0.198998D-02  0.384763D-02  0.884156D-03 -0.152098D-01 -0.160733D-02
                6             7             8             9            10 
      6  0.599700D-01
      7  0.916697D-03  0.617951D-01
      8  0.654701D-03  0.270007D-02  0.586151D-01
      9 -0.329006D-02  0.149214D-01  0.957853D-02  0.715217D-01
     10  0.612496D-03 -0.269137D-04 -0.418292D-02 -0.132066D-02  0.668418D-01
     11 -0.178685D-02  0.620673D-04 -0.265167D-02  0.104908D-02  0.101281D-01
     12  0.544235D-03 -0.196298D-04 -0.347416D-02 -0.343259D-02 -0.469192D-02
     13 -0.254130D-02 -0.175519D-01 -0.205582D-01 -0.320217D-02  0.227998D-02
     14  0.259857D-02 -0.204901D-01 -0.236707D-01 -0.251866D-02 -0.375862D-02
     15 -0.555959D-02 -0.559505D-02 -0.616340D-02 -0.311410D-02  0.258548D-02
     16  0.326766D-02  0.158457D-02 -0.178341D-02 -0.271226D-02 -0.105843D-01
     17 -0.494462D-02 -0.140602D-02 -0.137610D-03 -0.118176D-02 -0.159087D-01
     18 -0.634250D-02  0.402466D-02 -0.990593D-03 -0.472558D-02  0.126017D-01
     19 -0.305962D-02 -0.281942D-01  0.124685D-01 -0.163138D-01  0.160637D-02
     20  0.205976D-02  0.904369D-02 -0.330397D-02  0.401918D-02  0.893671D-02
     21 -0.265546D-01 -0.202736D-01  0.784049D-02 -0.120228D-01  0.283924D-02
     22  0.715884D-02 -0.388421D-02  0.981288D-03 -0.483235D-03 -0.281335D-01
     23  0.129845D-01  0.359383D-03 -0.282522D-02 -0.200624D-02  0.207650D-01
     24 -0.110374D-01 -0.475537D-02 -0.175645D-02 -0.185437D-02  0.244541D-02
     25 -0.134160D-01 -0.118184D-03 -0.254911D-02  0.218596D-02 -0.223461D-02
     26  0.137879D-02 -0.306146D-02 -0.493938D-02  0.919109D-02 -0.554535D-02
     27 -0.847120D-02  0.395781D-02  0.115408D-01 -0.260599D-01 -0.396596D-02
               11            12            13            14            15 
     11  0.793185D-01
     12  0.142872D-01  0.415447D-01
     13 -0.209317D-02  0.411335D-02  0.493483D-01
     14 -0.733433D-02 -0.904510D-02  0.166809D-01  0.492127D-01
     15 -0.878416D-02 -0.147237D-01  0.671759D-02 -0.753772D-02  0.623202D-01
     16 -0.155252D-01  0.112245D-01 -0.361518D-02  0.145556D-02  0.724435D-04
     17 -0.226419D-01  0.119133D-01 -0.216681D-02  0.330672D-02  0.726956D-02
     18  0.143531D-01 -0.154670D-01  0.135016D-02 -0.143566D-02 -0.532800D-02
     19 -0.658838D-03  0.940831D-04  0.838553D-03  0.573417D-03  0.224650D-02
     20 -0.595499D-02 -0.245788D-02  0.263250D-02 -0.110102D-01  0.186697D-02
     21 -0.151343D-02 -0.388216D-02 -0.181470D-03  0.400857D-02 -0.457442D-02
     22  0.216059D-01  0.473131D-02 -0.174183D-01  0.399037D-02 -0.165070D-01
     23 -0.221236D-01 -0.844078D-02  0.267278D-02 -0.370425D-02  0.798099D-02
     24 -0.632869D-02 -0.212909D-02 -0.164463D-01  0.815179D-02 -0.204448D-01
     25  0.670041D-03 -0.163456D-02 -0.330951D-02  0.606659D-03  0.945068D-03
     26 -0.422229D-02  0.456871D-02 -0.134796D-02 -0.636039D-02 -0.769989D-03
     27 -0.123394D-02  0.202282D-02  0.492760D-02  0.271170D-02 -0.304439D-02
               16            17            18            19            20 
     16  0.402375D-01
     17 -0.248440D-02  0.557347D-01
     18 -0.129534D-01 -0.503605D-02  0.789584D-01
     19 -0.441343D-02  0.294124D-02 -0.111894D-02  0.702343D-01
     20 -0.148320D-02 -0.298421D-02 -0.112203D-02 -0.392780D-02  0.512611D-01
     21  0.247191D-02 -0.496734D-02 -0.825998D-03  0.113996D-01  0.868201D-02
     22 -0.318756D-02 -0.722198D-03 -0.332227D-03 -0.142876D-01 -0.132524D-01
     23  0.140784D-02 -0.941911D-03  0.355444D-03 -0.160223D-01 -0.193568D-01
     24  0.744661D-02  0.157524D-02 -0.111634D-02 -0.104707D-01 -0.113897D-01
     25  0.189789D-02 -0.241690D-02  0.322176D-02 -0.199639D-01 -0.574807D-02
     26 -0.375769D-02 -0.135874D-01 -0.123414D-01 -0.138180D-02 -0.102547D-02
     27  0.404240D-03 -0.113565D-01 -0.123935D-01  0.118346D-01  0.743589D-03
               21            22            23            24            25 
     21  0.579583D-01
     22 -0.699174D-02  0.857805D-01
     23 -0.115141D-01  0.214959D-02  0.659691D-01
     24 -0.360401D-02  0.129211D-01 -0.672145D-03  0.432435D-01
     25  0.951358D-02 -0.268417D-02 -0.422254D-02  0.280150D-02  0.526733D-01
     26 -0.182387D-02 -0.469016D-03 -0.349500D-02 -0.181548D-02  0.170375D-01
     27 -0.521829D-02  0.266335D-03 -0.122049D-02 -0.153210D-02 -0.224854D-03
               26            27 
     26  0.487133D-01
     27 -0.342547D-02  0.538124D-01
 Leave Link  716 at Thu Mar  8 10:46:17 2018, MaxMem=   536870912 cpu:         0.1
 (Enter /share/apps//mg09/l103.exe)

 GradGradGradGradGradGradGradGradGradGradGradGradGradGradGradGradGradGrad
 Berny optimization.
 Search for a local minimum.
 Step number   1 out of a maximum of    2
 All quantities printed in internal units (Hartrees-Bohrs-Radians)
 Second derivative matrix not updated -- analytic derivatives used.
 ITU=  0
     Eigenvalues ---    0.00961   0.02008   0.02900   0.04002   0.04286
     Eigenvalues ---    0.04790   0.05174   0.05554   0.05779   0.06051
     Eigenvalues ---    0.06785   0.07223   0.08332   0.09420   0.09899
     Eigenvalues ---    0.10156   0.11015   0.12219   0.13019   0.14486
     Eigenvalues ---    0.14860
 Angle between quadratic step and forces=  33.91 degrees.
 Linear search not attempted -- first point.
 TrRot= -0.000027 -0.000006  0.000054 -0.000010  0.000011 -0.000010
 Variable       Old X    -DE/DX   Delta X   Delta X   Delta X     New X
                                 (Linear)    (Quad)   (Total)
    X1        3.81363  -0.00001   0.00000   0.00037   0.00033   3.81396
    Y1       -1.58128  -0.00003   0.00000  -0.00108  -0.00117  -1.58245
    Z1        1.55796  -0.00001   0.00000  -0.00159  -0.00157   1.55639
    X2       -2.11151   0.00002   0.00000   0.00040   0.00042  -2.11109
    Y2        3.59250   0.00002   0.00000   0.00193   0.00197   3.59446
    Z2       -2.83837  -0.00006   0.00000  -0.00060  -0.00052  -2.83889
    X3        1.85027   0.00003   0.00000   0.00309   0.00316   1.85343
    Y3        2.05643   0.00001   0.00000  -0.00092  -0.00097   2.05546
    Z3        4.85512   0.00000   0.00000  -0.00068  -0.00065   4.85448
    X4       -0.75504   0.00003   0.00000   0.00181   0.00169  -0.75335
    Y4       -4.13149  -0.00008   0.00000  -0.00257  -0.00256  -4.13405
    Z4       -0.75045   0.00000   0.00000   0.00167   0.00173  -0.74871
    X5       -1.40180  -0.00011   0.00000  -0.00372  -0.00373  -1.40553
    Y5       -1.54767   0.00011   0.00000   0.00438   0.00440  -1.54327
    Z5        4.19714   0.00002   0.00000   0.00088   0.00095   4.19809
    X6        2.08806   0.00003   0.00000  -0.00118  -0.00125   2.08681
    Y6       -0.19863  -0.00002   0.00000  -0.00040  -0.00045  -0.19907
    Z6       -3.76504   0.00002   0.00000   0.00040   0.00043  -3.76461
    X7       -2.15822   0.00002   0.00000   0.00007   0.00014  -2.15808
    Y7        3.64855  -0.00008   0.00000  -0.00314  -0.00310   3.64545
    Z7        2.56994   0.00005   0.00000   0.00250   0.00258   2.57252
    X8       -4.84634   0.00003   0.00000   0.00133   0.00130  -4.84503
    Y8       -0.34151   0.00004   0.00000  -0.00032  -0.00023  -0.34174
    Z8        0.28656  -0.00002   0.00000  -0.00335  -0.00325   0.28331
    X9        2.67425  -0.00004   0.00000  -0.00213  -0.00207   2.67219
    Y9        4.23584   0.00005   0.00000   0.00215   0.00209   4.23793
    Z9        0.01631   0.00000   0.00000   0.00027   0.00030   0.01661
         Item               Value     Threshold  Converged?
 Maximum Force            0.000113     0.000450     YES
 RMS     Force            0.000046     0.000300     YES
 Maximum Displacement     0.004402     0.001800     NO 
 RMS     Displacement     0.001976     0.001200     NO 
 Predicted change in Energy=-1.010126D-06
 GradGradGradGradGradGradGradGradGradGradGradGradGradGradGradGradGradGrad

 Leave Link  103 at Thu Mar  8 10:46:17 2018, MaxMem=   536870912 cpu:         0.1
 (Enter /share/apps//mg09/l9999.exe)
 1\1\GINC-COMPUTE-0-11\Freq\RPBE1PBE\def2TZVP\Bi4Ge3Sn2\RODRIGO\08-Mar-
 2018\0\\#P Geom=AllCheck Guess=TCheck SCRF=Check GenChk RPBE1PBE/def2T
 ZVP Freq\\01Final_coords.xyz_28\\0,1\Bi,2.0180860907,-0.8367767381,0.8
 244387196\Sn,-1.1173644695,1.9010664954,-1.5019994528\Ge,0.9791231642,
 1.0882158745,2.5692214933\Bi,-0.3995504016,-2.1862929707,-0.397120754\
 Ge,-0.7418025507,-0.8189917609,2.2210315215\Bi,1.1049553071,-0.1051082
 465,-1.9923754006\Ge,-1.1420822637,1.9307270385,1.3599548825\Bi,-2.564
 570186,-0.1807188204,0.1516407342\Sn,1.4151533094,2.2415101281,0.00862
 92561\\Version=ES64L-G09RevD.01\State=1-A\HF=-7517.8232831\RMSD=4.104e
 -09\RMSF=4.558e-05\ZeroPoint=0.0058812\Thermal=0.0233046\Dipole=0.2012
 911,-0.8059551,-0.5754024\DipoleDeriv=0.0676459,-0.0424939,0.0074624,0
 .0086618,0.0298467,-0.0156561,-0.023035,-0.0145429,0.0518314,-0.011307
 5,-0.120704,0.1096427,-0.1075508,0.1329799,-0.1422447,0.0972857,-0.122
 8029,0.0951348,-0.1277102,0.0125674,0.1685723,0.0191342,-0.1274083,0.1
 329193,0.0828914,0.0856871,0.1098515,-0.0783744,-0.0153195,0.0302239,0
 .0122524,0.0641626,-0.0391909,0.0228385,-0.0112631,0.0051054,0.0781228
 ,-0.0117717,-0.0353624,0.0048782,-0.0472746,-0.0445135,0.0072078,-0.02
 50466,-0.0038847,-0.0364187,0.0357404,-0.1137659,0.0242775,-0.1378237,
 0.0404393,-0.0309701,0.0318321,-0.0437236,-0.1108729,-0.0570139,-0.138
 0785,-0.0316805,-0.0428907,0.0400468,-0.0695541,0.0219535,-0.0838127,0
 .0645409,0.0167109,-0.0519101,-0.0328188,-0.0972228,0.0478166,-0.08857
 48,0.0652289,-0.0886013,0.1543742,0.1822842,0.0232155,0.102846,0.22563
 11,-0.0196167,0.0019104,-0.031046,-0.0419008\Polar=380.0804056,2.07998
 15,381.2455058,4.4532918,-4.0497676,372.3712059\PG=C01 [X(Bi4Ge3Sn2)]\
 NImag=0\\0.07268206,-0.01344062,0.05333107,0.01408152,0.00772379,0.060
 96645,-0.00255608,0.00237897,-0.00707213,0.05654058,-0.00114223,-0.002
 42323,0.00458526,-0.00485105,0.04241082,-0.00043354,0.00121233,0.00074
 106,0.00749475,-0.01415717,0.05997002,-0.00898384,0.01272063,0.0068231
 6,-0.00462043,0.00007172,0.00091670,0.06179509,0.01133314,-0.01979255,
 -0.01722988,0.00159063,-0.00129398,0.00065470,0.00270007,0.05861510,0.
 00648749,-0.01675163,-0.01702231,0.00043734,-0.00137961,-0.00329006,0.
 01492136,0.00957853,0.07152172,-0.02915467,-0.01204530,-0.01110578,-0.
 00059411,0.00161103,0.00061250,-0.00002691,-0.00418292,-0.00132066,0.0
 6684178,-0.01333671,-0.01055516,-0.01004229,-0.00085228,-0.00383463,-0
 .00178685,0.00006207,-0.00265167,0.00104908,0.01012813,0.07931853,-0.0
 1424786,-0.01152041,-0.00447719,0.00043068,0.00416914,0.00054423,-0.00
 001963,-0.00347416,-0.00343259,-0.00469192,0.01428719,0.04154469,-0.01
 337571,-0.00007419,0.00526253,0.00280373,0.00425410,-0.00254130,-0.017
 55187,-0.02055818,-0.00320217,0.00227998,-0.00209317,0.00411335,0.0493
 4830,0.00190235,0.00324245,0.00306651,-0.00096059,-0.00368199,0.002598
 57,-0.02049007,-0.02367072,-0.00251866,-0.00375862,-0.00733433,-0.0090
 4510,0.01668093,0.04921267,0.00606154,0.00408318,-0.00553115,0.0034734
 2,0.00205456,-0.00555959,-0.00559505,-0.00616340,-0.00311410,0.0025854
 8,-0.00878416,-0.01472373,0.00671759,-0.00753772,0.06232016,-0.0050202
 4,0.00744487,-0.00922177,-0.01689920,0.01472562,0.00326766,0.00158457,
 -0.00178341,-0.00271226,-0.01058430,-0.01552519,0.01122455,-0.00361518
 ,0.00145556,0.00007244,0.04023745,0.00625087,-0.00485394,0.00672812,0.
 01591292,-0.01389447,-0.00494462,-0.00140602,-0.00013761,-0.00118176,-
 0.01590869,-0.02264189,0.01191329,-0.00216681,0.00330672,0.00726956,-0
 .00248440,0.05573467,-0.00986933,0.01012354,-0.03275954,0.00307559,-0.
 00390637,-0.00634250,0.00402466,-0.00099059,-0.00472558,0.01260171,0.0
 1435310,-0.01546697,0.00135016,-0.00143566,-0.00532800,-0.01295338,-0.
 00503605,0.07895839,-0.00612131,0.00418700,0.00538834,0.00030124,0.001
 82058,-0.00305962,-0.02819421,0.01246850,-0.01631384,0.00160637,-0.000
 65884,0.00009408,0.00083855,0.00057342,0.00224650,-0.00441343,0.002941
 24,-0.00111894,0.07023427,-0.00002698,-0.00810938,-0.00240192,0.003825
 56,0.00048396,0.00205976,0.00904369,-0.00330397,0.00401918,0.00893671,
 -0.00595499,-0.00245788,0.00263250,-0.01101016,0.00186697,-0.00148320,
 -0.00298421,-0.00112203,-0.00392780,0.05126107,0.00030784,0.00003782,-
 0.00127601,0.00091467,-0.00075015,-0.02655460,-0.02027364,0.00784049,-
 0.01202277,0.00283924,-0.00151343,-0.00388216,-0.00018147,0.00400857,-
 0.00457442,0.00247191,-0.00496734,-0.00082600,0.01139960,0.00868201,0.
 05795827,-0.00494565,-0.00275254,-0.00076338,-0.01123951,-0.01153103,0
 .00715884,-0.00388421,0.00098129,-0.00048324,-0.02813352,0.02160595,0.
 00473131,-0.01741830,0.00399037,-0.01650700,-0.00318756,-0.00072220,-0
 .00033223,-0.01428759,-0.01325241,-0.00699174,0.08578051,0.00618611,0.
 00355306,0.00253282,-0.01329588,-0.01707540,0.01298450,0.00035938,-0.0
 0282522,-0.00200624,0.02076502,-0.02212358,-0.00844078,0.00267278,-0.0
 0370425,0.00798099,0.00140784,-0.00094191,0.00035544,-0.01602231,-0.01
 935684,-0.01151410,0.00214959,0.06596914,-0.00039766,0.00124375,-0.001
 52547,0.00645544,0.01099167,-0.01103736,-0.00475537,-0.00175645,-0.001
 85437,0.00244541,-0.00632869,-0.00212909,-0.01644631,0.00815179,-0.020
 44478,0.00744661,0.00157524,-0.00111634,-0.01047070,-0.01138970,-0.003
 60401,0.01292109,-0.00067215,0.04324352,-0.00252456,0.00158118,-0.0033
 9248,-0.02373622,-0.00495874,-0.01341598,-0.00011818,-0.00254911,0.002
 18596,-0.00223461,0.00067004,-0.00163456,-0.00330951,0.00060666,0.0009
 4507,0.00189789,-0.00241690,0.00322176,-0.01996390,-0.00574807,0.00951
 358,-0.00268417,-0.00422254,0.00280150,0.05267326,0.00227407,-0.014392
 33,0.00503759,-0.00374828,-0.00069108,0.00137879,-0.00306146,-0.004939
 38,0.00919109,-0.00554535,-0.00422229,0.00456871,-0.00134796,-0.006360
 39,-0.00076999,-0.00375769,-0.01358736,-0.01234139,-0.00138180,-0.0010
 2547,-0.00182387,-0.00046902,-0.00349500,-0.00181548,0.01703748,0.0487
 1329,-0.00198998,0.00384763,0.00088416,-0.01520976,-0.00160733,-0.0084
 7120,0.00395781,0.01154076,-0.02605994,-0.00396596,-0.00123394,0.00202
 282,0.00492760,0.00271170,-0.00304439,0.00040424,-0.01135645,-0.012393
 46,0.01183456,0.00074359,-0.00521829,0.00026634,-0.00122049,-0.0015321
 0,-0.00022485,-0.00342547,0.05381241\\0.00001101,0.00003311,0.00001449
 ,-0.00002360,-0.00001513,0.00005807,-0.00002773,-0.00000546,-0.0000002
 1,-0.00002905,0.00008471,0.00000121,0.00011264,-0.00010778,-0.00002330
 ,-0.00002661,0.00002135,-0.00002377,-0.00002174,0.00007545,-0.00005027
 ,-0.00003017,-0.00003881,0.00002279,0.00003525,-0.00004743,0.00000099\
 \\@


 ON A TOMBSTONE, "HERE LIES LESTER MOORE,
 FOUR SLUGS FROM A 44, NO LES, NO MORE".
 Job cpu time:       0 days  4 hours 42 minutes 50.5 seconds.
 File lengths (MBytes):  RWF=    299 Int=      0 D2E=      0 Chk=     16 Scr=      1
 Normal termination of Gaussian 09 at Thu Mar  8 10:46:19 2018.
