 Entering Gaussian System, Link 0=/share/apps/mg09/g09
 Initial command:
 /share/apps//mg09/l1.exe "/state/partition1/gauss_tmp/Gau-13915.inp" -scrdir="/state/partition1/gauss_tmp/"
 Entering Link 1 = /share/apps//mg09/l1.exe PID=     13917.
  
 Copyright (c) 1988,1990,1992,1993,1995,1998,2003,2009,2013,
            Gaussian, Inc.  All Rights Reserved.
  
 This is part of the Gaussian(R) 09 program.  It is based on
 the Gaussian(R) 03 system (copyright 2003, Gaussian, Inc.),
 the Gaussian(R) 98 system (copyright 1998, Gaussian, Inc.),
 the Gaussian(R) 94 system (copyright 1995, Gaussian, Inc.),
 the Gaussian 92(TM) system (copyright 1992, Gaussian, Inc.),
 the Gaussian 90(TM) system (copyright 1990, Gaussian, Inc.),
 the Gaussian 88(TM) system (copyright 1988, Gaussian, Inc.),
 the Gaussian 86(TM) system (copyright 1986, Carnegie Mellon
 University), and the Gaussian 82(TM) system (copyright 1983,
 Carnegie Mellon University). Gaussian is a federally registered
 trademark of Gaussian, Inc.
  
 This software contains proprietary and confidential information,
 including trade secrets, belonging to Gaussian, Inc.
  
 This software is provided under written license and may be
 used, copied, transmitted, or stored only in accord with that
 written license.
  
 The following legend is applicable only to US Government
 contracts under FAR:
  
                    RESTRICTED RIGHTS LEGEND
  
 Use, reproduction and disclosure by the US Government is
 subject to restrictions as set forth in subparagraphs (a)
 and (c) of the Commercial Computer Software - Restricted
 Rights clause in FAR 52.227-19.
  
 Gaussian, Inc.
 340 Quinnipiac St., Bldg. 40, Wallingford CT 06492
  
  
 ---------------------------------------------------------------
 Warning -- This program may not be used in any manner that
 competes with the business of Gaussian, Inc. or will provide
 assistance to any competitor of Gaussian, Inc.  The licensee
 of this program is prohibited from giving any competitor of
 Gaussian, Inc. access to this program.  By using this program,
 the user acknowledges that Gaussian, Inc. is engaged in the
 business of creating and licensing software in the field of
 computational chemistry and represents and warrants to the
 licensee that it is not a competitor of Gaussian, Inc. and that
 it will not use this program in any manner prohibited above.
 ---------------------------------------------------------------
  

 Cite this work as:
 Gaussian 09, Revision D.01,
 M. J. Frisch, G. W. Trucks, H. B. Schlegel, G. E. Scuseria, 
 M. A. Robb, J. R. Cheeseman, G. Scalmani, V. Barone, B. Mennucci, 
 G. A. Petersson, H. Nakatsuji, M. Caricato, X. Li, H. P. Hratchian, 
 A. F. Izmaylov, J. Bloino, G. Zheng, J. L. Sonnenberg, M. Hada, 
 M. Ehara, K. Toyota, R. Fukuda, J. Hasegawa, M. Ishida, T. Nakajima, 
 Y. Honda, O. Kitao, H. Nakai, T. Vreven, J. A. Montgomery, Jr., 
 J. E. Peralta, F. Ogliaro, M. Bearpark, J. J. Heyd, E. Brothers, 
 K. N. Kudin, V. N. Staroverov, T. Keith, R. Kobayashi, J. Normand, 
 K. Raghavachari, A. Rendell, J. C. Burant, S. S. Iyengar, J. Tomasi, 
 M. Cossi, N. Rega, J. M. Millam, M. Klene, J. E. Knox, J. B. Cross, 
 V. Bakken, C. Adamo, J. Jaramillo, R. Gomperts, R. E. Stratmann, 
 O. Yazyev, A. J. Austin, R. Cammi, C. Pomelli, J. W. Ochterski, 
 R. L. Martin, K. Morokuma, V. G. Zakrzewski, G. A. Voth, 
 P. Salvador, J. J. Dannenberg, S. Dapprich, A. D. Daniels, 
 O. Farkas, J. B. Foresman, J. V. Ortiz, J. Cioslowski, 
 and D. J. Fox, Gaussian, Inc., Wallingford CT, 2013.
 
 ******************************************
 Gaussian 09:  ES64L-G09RevD.01 24-Apr-2013
                 6-Mar-2018 
 ******************************************
 %NProcShared=4
 Will use up to    4 processors via shared memory.
 %LindaWorkers=compute-0-4
 %chk=Isomer_35.chk
 %NProc=4
 Will use up to    4 processors via shared memory.
 %mem=4GB
 SetLPE:  input flags=" -vv -opt "Tsnet.Node.lindarsharg: ssh" "
 SetLPE:    new flags=" -vv -opt "Tsnet.Node.lindarsharg: ssh"  -nodelist 'compute-0-4.local'"
 Will use up to    1 processors via Linda.
 ----------------------------------------------------------------------
 #p PBE1PBE/Def2TZVP scf=(maxcycle=768) opt=(cartesian,maxcycle=512) fr
 eq
 ----------------------------------------------------------------------
 1/6=512,10=7,14=-1,18=10,26=3,38=1/1,3;
 2/12=2,17=6,18=5,29=2,40=1/2;
 3/5=44,7=101,11=2,16=1,25=1,30=1,71=1,74=-13/1,2,3;
 4//1;
 5/5=2,7=768,38=5/2;
 6/7=2,8=2,9=2,10=2,28=1/1;
 7/7=1,29=1/1,2,3,16;
 1/6=512,10=7,14=-1,18=10,26=3/3(2);
 2/29=1/2;
 99/12=1/99;
 2/29=1/2;
 3/5=44,7=101,11=2,16=1,25=1,30=1,71=1,74=-13/1,2,3;
 4/5=5,16=3,69=1/1;
 5/5=2,7=768,38=5/2;
 7/7=1/1,2,3,16;
 1/6=512,14=-1,18=10,26=3/3(-5);
 2/29=1/2;
 6/7=2,8=2,9=2,10=2,19=2,28=1/1;
 99/9=1,12=1/99;
 Leave Link    1 at Tue Mar  6 14:21:43 2018, MaxMem=   536870912 cpu:         0.2
 (Enter /share/apps//mg09/l101.exe)
 ---------------------
 01Final_coords.xyz_35
 ---------------------
 Symbolic Z-matrix:
 Charge =  0 Multiplicity = 1
 32                    1.19028  -0.60994   2.18062 
 83                   -2.04484  -0.86113  -1.14276 
 83                    1.90184   1.50359  -0.11369 
 50                   -1.85332  -0.20026   1.92647 
 83                    2.0455   -1.4558   -0.56272 
 83                   -1.19137   1.9625   -0.54343 
 32                    0.39575   0.14518  -2.35901 
 50                   -0.40956  -2.64094   0.77577 
 32                    0.10522   1.9235    2.08413 
 
 NAtoms=      9 NQM=        9 NQMF=       0 NMMI=      0 NMMIF=      0
                NMic=       0 NMicF=      0.
                    Isotopes and Nuclear Properties:
 (Nuclear quadrupole moments (NQMom) in fm**2, nuclear magnetic moments (NMagM)
  in nuclear magnetons)

  Atom         1           2           3           4           5           6           7           8           9
 IAtWgt=          74         209         209         118         209         209          74         118          74
 AtmWgt=  73.9211788 208.9804000 208.9804000 117.9018000 208.9804000 208.9804000  73.9211788 117.9018000  73.9211788
 NucSpn=           0           9           9           0           9           9           0           0           0
 AtZEff=   0.0000000   0.0000000   0.0000000   0.0000000   0.0000000   0.0000000   0.0000000   0.0000000   0.0000000
 NQMom=    0.0000000 -51.6000000 -51.6000000   0.0000000 -51.6000000 -51.6000000   0.0000000   0.0000000   0.0000000
 NMagM=    0.0000000   4.1106000   4.1106000   0.0000000   4.1106000   4.1106000   0.0000000   0.0000000   0.0000000
 AtZNuc=  32.0000000  83.0000000  83.0000000  50.0000000  83.0000000  83.0000000  32.0000000  50.0000000  32.0000000
 Leave Link  101 at Tue Mar  6 14:21:43 2018, MaxMem=   536870912 cpu:         0.3
 (Enter /share/apps//mg09/l103.exe)

 GradGradGradGradGradGradGradGradGradGradGradGradGradGradGradGradGradGrad
 Berny optimization.
 Initialization pass.
 No Z-matrix variables, so optimization will use Cartesian coordinates.
 Trust Radius=3.00D-01 FncErr=1.00D-07 GrdErr=1.00D-06
 Number of steps in this run=    100 maximum allowed number of steps=    100.
 GradGradGradGradGradGradGradGradGradGradGradGradGradGradGradGradGradGrad

 Leave Link  103 at Tue Mar  6 14:21:43 2018, MaxMem=   536870912 cpu:         0.1
 (Enter /share/apps//mg09/l202.exe)
 ---------------------------------------------------------------------------------------------------
                            Z-MATRIX (ANGSTROMS AND DEGREES)
   CD    Cent   Atom    N1       Length/X        N2       Alpha/Y        N3        Beta/Z          J
 ---------------------------------------------------------------------------------------------------
      1      1  Ge       0   1.190284         -0.609940          2.180617
      2      2  Bi       0  -2.044838         -0.861133         -1.142757
      3      3  Bi       0   1.901841          1.503590         -0.113690
      4      4  Sn       0  -1.853323         -0.200255          1.926469
      5      5  Bi       0   2.045505         -1.455797         -0.562721
      6      6  Bi       0  -1.191374          1.962495         -0.543430
      7      7  Ge       0   0.395748          0.145184         -2.359006
      8      8  Sn       0  -0.409561         -2.640939          0.775767
      9      9  Ge       0   0.105222          1.923500          2.084131
 ---------------------------------------------------------------------------------------------------
                         Z-Matrix orientation:                         
 ---------------------------------------------------------------------
 Center     Atomic      Atomic             Coordinates (Angstroms)
 Number     Number       Type             X           Y           Z
 ---------------------------------------------------------------------
      1         32           0        1.190284   -0.609940    2.180617
      2         83           0       -2.044838   -0.861133   -1.142757
      3         83           0        1.901841    1.503590   -0.113690
      4         50           0       -1.853323   -0.200255    1.926469
      5         83           0        2.045505   -1.455797   -0.562721
      6         83           0       -1.191374    1.962495   -0.543430
      7         32           0        0.395748    0.145184   -2.359006
      8         50           0       -0.409561   -2.640939    0.775767
      9         32           0        0.105222    1.923500    2.084131
 ---------------------------------------------------------------------
                    Distance matrix (angstroms):
                    1          2          3          4          5
     1  Ge   0.000000
     2  Bi   4.644774   0.000000
     3  Bi   3.199557   4.714570   0.000000
     4  Sn   3.081554   3.145407   4.600717   0.000000
     5  Bi   2.995460   4.173844   2.996705   4.793048   0.000000
     6  Bi   4.439611   3.010061   3.156462   3.349039   4.707704
     7  Ge   4.670083   2.906612   3.025728   4.852107   2.917444
     8  Sn   2.942459   3.085867   4.828129   3.060311   3.037015
     9  Ge   2.757714   4.773861   2.869596   2.893284   4.710645
                    6          7          8          9
     6  Bi   0.000000
     7  Ge   3.019585   0.000000
     8  Sn   4.852125   4.270574   0.000000
     9  Ge   2.930317   4.794609   4.776078   0.000000
 Stoichiometry    Bi4Ge3Sn2
 Framework group  C1[X(Bi4Ge3Sn2)]
 Deg. of freedom    21
 Full point group                 C1      NOp   1
 Largest Abelian subgroup         C1      NOp   1
 Largest concise Abelian subgroup C1      NOp   1
                         Standard orientation:                         
 ---------------------------------------------------------------------
 Center     Atomic      Atomic             Coordinates (Angstroms)
 Number     Number       Type             X           Y           Z
 ---------------------------------------------------------------------
      1         32           0       -1.190285    0.609939    2.180617
      2         83           0        2.044837    0.861135   -1.142757
      3         83           0       -1.901839   -1.503592   -0.113690
      4         50           0        1.853323    0.200257    1.926469
      5         83           0       -2.045506    1.455795   -0.562721
      6         83           0        1.191376   -1.962494   -0.543430
      7         32           0       -0.395748   -0.145184   -2.359006
      8         50           0        0.409558    2.640939    0.775767
      9         32           0       -0.105220   -1.923500    2.084131
 ---------------------------------------------------------------------
 Rotational constants (GHZ):      0.1010910      0.0946791      0.0796186
 Leave Link  202 at Tue Mar  6 14:21:43 2018, MaxMem=   536870912 cpu:         0.0
 (Enter /share/apps//mg09/l301.exe)
 Standard basis: def2TZVP (5D, 7F)
 Ernie: Thresh=  0.10000D-02 Tol=  0.10000D-05 Strict=F.
 There are   519 symmetry adapted cartesian basis functions of A   symmetry.
 There are   444 symmetry adapted basis functions of A   symmetry.
   444 basis functions,   963 primitive gaussians,   519 cartesian basis functions
   116 alpha electrons      116 beta electrons
       nuclear repulsion energy      3534.6782742498 Hartrees.
 IExCor= 1009 DFT=T Ex+Corr=PBE1PBE ExCW=0 ScaHFX=  0.250000
 ScaDFX=  0.750000  0.750000  1.000000  1.000000 ScalE2=  1.000000  1.000000
 IRadAn=      0 IRanWt=     -1 IRanGd=            0 ICorTp=0 IEmpDi=  4
 NAtoms=    9 NActive=    9 NUniq=    9 SFac= 1.00D+00 NAtFMM=   60 NAOKFM=F Big=F
 Integral buffers will be    131072 words long.
 Raffenetti 2 integral format.
 Two-electron integral symmetry is turned on.
 Leave Link  301 at Tue Mar  6 14:21:43 2018, MaxMem=   536870912 cpu:         0.2
 (Enter /share/apps//mg09/l302.exe)
 NPDir=0 NMtPBC=     1 NCelOv=     1 NCel=       1 NClECP=     1 NCelD=      1
         NCelK=      1 NCelE2=     1 NClLst=     1 CellRange=     0.0.
 One-electron integrals computed using PRISM.
   1 Symmetry operations used in ECPInt.
 ECPInt:  NShTT=   10440 NPrTT=   41973 LenC2=    9657 LenP2D=   27502.
 LDataN:  DoStor=T MaxTD1= 8 Len=  415
 NBasis=   444 RedAO= T EigKep=  1.35D-03  NBF=   444
 NBsUse=   444 1.00D-06 EigRej= -1.00D+00 NBFU=   444
 Precomputing XC quadrature grid using
 IXCGrd= 4 IRadAn=           0 IRanWt=          -1 IRanGd=           0 AccXCQ= 0.00D+00.
 Defaulting to unpruned grid for atomic number  50.
 Defaulting to unpruned grid for atomic number  50.
 Defaulting to unpruned grid for atomic number  83.
 Generated NRdTot=       0 NPtTot=           0 NUsed=           0 NTot=          32
 NSgBfM=   501   501   501   501   501 MxSgAt=     9 MxSgA2=     9.
 Leave Link  302 at Tue Mar  6 14:21:50 2018, MaxMem=   536870912 cpu:        27.1
 (Enter /share/apps//mg09/l303.exe)
 DipDrv:  MaxL=1.
 Leave Link  303 at Tue Mar  6 14:21:50 2018, MaxMem=   536870912 cpu:         0.2
 (Enter /share/apps//mg09/l401.exe)
 ExpMin= 4.62D-02 ExpMax= 4.66D+05 ExpMxC= 4.50D+03 IAcc=2 IRadAn=         4 AccDes= 0.00D+00
 Harris functional with IExCor= 1009 and IRadAn=       4 diagonalized for initial guess.
 HarFok:  IExCor= 1009 AccDes= 0.00D+00 IRadAn=         4 IDoV= 1 UseB2=F ITyADJ=14
 ICtDFT=  3500011 ScaDFX=  1.000000  1.000000  1.000000  1.000000
 Defaulting to unpruned grid for atomic number  83.
 Defaulting to unpruned grid for atomic number  83.
 Defaulting to unpruned grid for atomic number  83.
 Defaulting to unpruned grid for atomic number  83.
 FoFCou: FMM=F IPFlag=           0 FMFlag=      100000 FMFlg1=           0
         NFxFlg=           0 DoJE=T BraDBF=F KetDBF=T FulRan=T
         wScrn=  0.000000 ICntrl=     500 IOpCl=  0 I1Cent=   200000004 NGrid=           0
         NMat0=    1 NMatS0=      1 NMatT0=    0 NMatD0=    1 NMtDS0=    0 NMtDT0=    0
 Petite list used in FoFCou.
 Harris En= -7518.60468510564    
 JPrj=0 DoOrth=F DoCkMO=F.
 Leave Link  401 at Tue Mar  6 14:21:53 2018, MaxMem=   536870912 cpu:        10.3
 (Enter /share/apps//mg09/l502.exe)
 Closed shell SCF:
 Using DIIS extrapolation, IDIIS=  1040.
 Integral symmetry usage will be decided dynamically.
 IVT=     1410107 IEndB=     1410107 NGot=   536870912 MDV=   536322046
 LenX=   536322046 LenY=   536052166
 Requested convergence on RMS density matrix=1.00D-08 within 768 cycles.
 Requested convergence on MAX density matrix=1.00D-06.
 Requested convergence on             energy=1.00D-06.
 No special actions if energy rises.
 Fock matrices will be formed incrementally for  20 cycles.

 Cycle   1  Pass 1  IDiag  1:
 FoFJK:  IHMeth= 1 ICntrl=       0 DoSepK=F KAlg= 0 I1Cent=   0 FoldK=F
 IRaf= 880000000 NMat=   1 IRICut=       1 DoRegI=T DoRafI=F ISym2E= 0.
 FoFCou: FMM=F IPFlag=           0 FMFlag=      100000 FMFlg1=           0
         NFxFlg=           0 DoJE=F BraDBF=F KetDBF=F FulRan=T
         wScrn=  0.000000 ICntrl=       0 IOpCl=  0 I1Cent=           0 NGrid=           0
         NMat0=    1 NMatS0=      1 NMatT0=    0 NMatD0=    1 NMtDS0=    0 NMtDT0=    0
 Symmetry not used in FoFCou.
 Defaulting to unpruned grid for atomic number  83.
 Defaulting to unpruned grid for atomic number  83.
 Defaulting to unpruned grid for atomic number  83.
 Defaulting to unpruned grid for atomic number  83.
 E= -7517.24347708523    
 DIIS: error= 3.46D-02 at cycle   1 NSaved=   1.
 NSaved= 1 IEnMin= 1 EnMin= -7517.24347708523     IErMin= 1 ErrMin= 3.46D-02
 ErrMax= 3.46D-02  0.00D+00 EMaxC= 1.00D-01 BMatC= 1.46D+00 BMatP= 1.46D+00
 IDIUse=3 WtCom= 6.54D-01 WtEn= 3.46D-01
 Coeff-Com:  0.100D+01
 Coeff-En:   0.100D+01
 Coeff:      0.100D+01
 Gap=     0.146 Goal=   None    Shift=    0.000
 GapD=    0.146 DampG=1.000 DampE=0.500 DampFc=0.5000 IDamp=-1.
 Damping current iteration by 5.00D-01
 RMSDP=5.77D-03 MaxDP=2.35D-01              OVMax= 9.88D-01

 Cycle   2  Pass 1  IDiag  1:
 RMSU=  2.88D-03    CP:  1.00D+00
 E= -7516.98763645604     Delta-E=        0.255840629188 Rises=F Damp=T
 DIIS: error= 1.33D-02 at cycle   2 NSaved=   2.
 NSaved= 2 IEnMin= 1 EnMin= -7517.24347708523     IErMin= 2 ErrMin= 1.33D-02
 ErrMax= 1.33D-02  0.00D+00 EMaxC= 1.00D-01 BMatC= 2.95D-01 BMatP= 1.46D+00
 IDIUse=3 WtCom= 8.67D-01 WtEn= 1.33D-01
 Coeff-Com:  0.159D+00 0.841D+00
 Coeff-En:   0.633D+00 0.367D+00
 Coeff:      0.222D+00 0.778D+00
 Gap=    -0.241 Goal=   None    Shift=    0.000
 RMSDP=4.09D-03 MaxDP=2.06D-01 DE= 2.56D-01 OVMax= 8.27D-01

 Cycle   3  Pass 1  IDiag  1:
 RMSU=  3.25D-03    CP:  1.01D+00  1.38D-01
 E= -7515.53710088900     Delta-E=        1.450535567046 Rises=F Damp=F
 DIIS: error= 3.69D-02 at cycle   3 NSaved=   3.
 NSaved= 3 IEnMin= 1 EnMin= -7517.24347708523     IErMin= 2 ErrMin= 1.33D-02
 ErrMax= 3.69D-02  0.00D+00 EMaxC= 1.00D-01 BMatC= 1.73D+00 BMatP= 2.95D-01
 IDIUse=2 WtCom= 0.00D+00 WtEn= 1.00D+00
 EnCoef did    11 forward-backward iterations
 Coeff-En:   0.560D+00 0.395D+00 0.454D-01
 Coeff:      0.560D+00 0.395D+00 0.454D-01
 Gap=     0.185 Goal=   None    Shift=    0.000
 RMSDP=3.43D-03 MaxDP=1.45D-01 DE= 1.45D+00 OVMax= 4.15D-01

 Cycle   4  Pass 1  IDiag  1:
 RMSU=  1.77D-03    CP:  1.01D+00  7.60D-01  2.82D-01
 E= -7517.67190177506     Delta-E=       -2.134800886062 Rises=F Damp=F
 DIIS: error= 9.83D-03 at cycle   4 NSaved=   4.
 NSaved= 4 IEnMin= 4 EnMin= -7517.67190177506     IErMin= 4 ErrMin= 9.83D-03
 ErrMax= 9.83D-03  0.00D+00 EMaxC= 1.00D-01 BMatC= 3.13D-01 BMatP= 2.95D-01
 IDIUse=3 WtCom= 9.02D-01 WtEn= 9.83D-02
 Coeff-Com:  0.312D+00 0.712D-02-0.276D-01 0.709D+00
 Coeff-En:   0.159D+00 0.000D+00 0.000D+00 0.841D+00
 Coeff:      0.297D+00 0.642D-02-0.249D-01 0.722D+00
 Gap=     0.107 Goal=   None    Shift=    0.000
 RMSDP=1.48D-03 MaxDP=6.33D-02 DE=-2.13D+00 OVMax= 1.17D-01

 Cycle   5  Pass 1  IDiag  1:
 RMSU=  8.83D-04    CP:  1.00D+00  5.49D-01  3.77D-02  6.46D-01
 E= -7517.71953523352     Delta-E=       -0.047633458456 Rises=F Damp=F
 DIIS: error= 6.74D-03 at cycle   5 NSaved=   5.
 NSaved= 5 IEnMin= 5 EnMin= -7517.71953523352     IErMin= 5 ErrMin= 6.74D-03
 ErrMax= 6.74D-03  0.00D+00 EMaxC= 1.00D-01 BMatC= 8.69D-02 BMatP= 2.95D-01
 IDIUse=3 WtCom= 9.33D-01 WtEn= 6.74D-02
 Coeff-Com:  0.182D+00-0.976D-01-0.166D-01 0.499D+00 0.433D+00
 Coeff-En:   0.000D+00 0.000D+00 0.000D+00 0.394D+00 0.606D+00
 Coeff:      0.170D+00-0.910D-01-0.155D-01 0.492D+00 0.444D+00
 Gap=     0.127 Goal=   None    Shift=    0.000
 RMSDP=9.76D-04 MaxDP=5.02D-02 DE=-4.76D-02 OVMax= 1.08D-01

 Cycle   6  Pass 1  IDiag  1:
 RMSU=  4.70D-04    CP:  1.00D+00  5.33D-01  1.36D-01  7.28D-01  1.24D-01
 E= -7517.78682421986     Delta-E=       -0.067288986347 Rises=F Damp=F
 DIIS: error= 3.02D-03 at cycle   6 NSaved=   6.
 NSaved= 6 IEnMin= 6 EnMin= -7517.78682421986     IErMin= 6 ErrMin= 3.02D-03
 ErrMax= 3.02D-03  0.00D+00 EMaxC= 1.00D-01 BMatC= 2.21D-02 BMatP= 8.69D-02
 IDIUse=3 WtCom= 9.70D-01 WtEn= 3.02D-02
 Coeff-Com:  0.612D-01-0.621D-01 0.792D-02 0.222D+00 0.340D+00 0.431D+00
 Coeff-En:   0.000D+00 0.000D+00 0.000D+00 0.000D+00 0.244D+00 0.756D+00
 Coeff:      0.594D-01-0.602D-01 0.768D-02 0.216D+00 0.337D+00 0.440D+00
 Gap=     0.121 Goal=   None    Shift=    0.000
 RMSDP=4.90D-04 MaxDP=1.75D-02 DE=-6.73D-02 OVMax= 6.21D-02

 Cycle   7  Pass 1  IDiag  1:
 RMSU=  2.56D-04    CP:  1.00D+00  5.22D-01  1.27D-01  7.06D-01  4.45D-01
                    CP:  3.59D-01
 E= -7517.80299177879     Delta-E=       -0.016167558928 Rises=F Damp=F
 DIIS: error= 1.98D-03 at cycle   7 NSaved=   7.
 NSaved= 7 IEnMin= 7 EnMin= -7517.80299177879     IErMin= 7 ErrMin= 1.98D-03
 ErrMax= 1.98D-03  0.00D+00 EMaxC= 1.00D-01 BMatC= 5.60D-03 BMatP= 2.21D-02
 IDIUse=3 WtCom= 9.80D-01 WtEn= 1.98D-02
 Coeff-Com:  0.311D-01-0.519D-01 0.388D-02 0.120D+00 0.202D+00 0.350D+00
 Coeff-Com:  0.345D+00
 Coeff-En:   0.000D+00 0.000D+00 0.000D+00 0.000D+00 0.000D+00 0.289D+00
 Coeff-En:   0.711D+00
 Coeff:      0.305D-01-0.508D-01 0.381D-02 0.117D+00 0.198D+00 0.349D+00
 Coeff:      0.353D+00
 Gap=     0.123 Goal=   None    Shift=    0.000
 RMSDP=2.24D-04 MaxDP=1.09D-02 DE=-1.62D-02 OVMax= 2.71D-02

 Cycle   8  Pass 1  IDiag  1:
 RMSU=  7.08D-05    CP:  1.00D+00  5.25D-01  1.26D-01  7.05D-01  3.82D-01
                    CP:  5.61D-01  2.97D-01
 E= -7517.80939125622     Delta-E=       -0.006399477432 Rises=F Damp=F
 DIIS: error= 7.23D-04 at cycle   8 NSaved=   8.
 NSaved= 8 IEnMin= 8 EnMin= -7517.80939125622     IErMin= 8 ErrMin= 7.23D-04
 ErrMax= 7.23D-04  0.00D+00 EMaxC= 1.00D-01 BMatC= 6.60D-04 BMatP= 5.60D-03
 IDIUse=3 WtCom= 9.93D-01 WtEn= 7.23D-03
 Coeff-Com:  0.127D-01-0.256D-01 0.456D-02 0.416D-01 0.625D-01 0.149D+00
 Coeff-Com:  0.249D+00 0.506D+00
 Coeff-En:   0.000D+00 0.000D+00 0.000D+00 0.000D+00 0.000D+00 0.000D+00
 Coeff-En:   0.100D+00 0.900D+00
 Coeff:      0.126D-01-0.254D-01 0.453D-02 0.413D-01 0.621D-01 0.148D+00
 Coeff:      0.248D+00 0.508D+00
 Gap=     0.122 Goal=   None    Shift=    0.000
 RMSDP=6.23D-05 MaxDP=3.57D-03 DE=-6.40D-03 OVMax= 7.97D-03

 Cycle   9  Pass 1  IDiag  1:
 RMSU=  3.07D-05    CP:  1.00D+00  5.24D-01  1.36D-01  7.07D-01  3.83D-01
                    CP:  5.25D-01  4.32D-01  7.12D-01
 E= -7517.81013610639     Delta-E=       -0.000744850171 Rises=F Damp=F
 DIIS: error= 1.78D-04 at cycle   9 NSaved=   9.
 NSaved= 9 IEnMin= 9 EnMin= -7517.81013610639     IErMin= 9 ErrMin= 1.78D-04
 ErrMax= 1.78D-04  0.00D+00 EMaxC= 1.00D-01 BMatC= 4.13D-05 BMatP= 6.60D-04
 IDIUse=3 WtCom= 9.98D-01 WtEn= 1.78D-03
 Coeff-Com:  0.411D-02-0.837D-02 0.780D-03 0.552D-02-0.818D-02 0.862D-02
 Coeff-Com:  0.505D-01 0.226D+00 0.721D+00
 Coeff-En:   0.000D+00 0.000D+00 0.000D+00 0.000D+00 0.000D+00 0.000D+00
 Coeff-En:   0.000D+00 0.000D+00 0.100D+01
 Coeff:      0.410D-02-0.835D-02 0.778D-03 0.551D-02-0.817D-02 0.860D-02
 Coeff:      0.505D-01 0.226D+00 0.721D+00
 Gap=     0.122 Goal=   None    Shift=    0.000
 RMSDP=2.48D-05 MaxDP=1.69D-03 DE=-7.45D-04 OVMax= 2.55D-03

 Cycle  10  Pass 1  IDiag  1:
 RMSU=  1.65D-05    CP:  1.00D+00  5.21D-01  1.37D-01  7.06D-01  3.73D-01
                    CP:  5.28D-01  4.46D-01  8.26D-01  6.85D-01
 E= -7517.81017820142     Delta-E=       -0.000042095022 Rises=F Damp=F
 DIIS: error= 1.01D-04 at cycle  10 NSaved=  10.
 NSaved=10 IEnMin=10 EnMin= -7517.81017820142     IErMin=10 ErrMin= 1.01D-04
 ErrMax= 1.01D-04  0.00D+00 EMaxC= 1.00D-01 BMatC= 1.27D-05 BMatP= 4.13D-05
 IDIUse=3 WtCom= 9.99D-01 WtEn= 1.01D-03
 Coeff-Com:  0.114D-02-0.241D-02 0.245D-03-0.163D-02-0.128D-01-0.141D-01
 Coeff-Com: -0.722D-02 0.624D-01 0.485D+00 0.489D+00
 Coeff-En:   0.000D+00 0.000D+00 0.000D+00 0.000D+00 0.000D+00 0.000D+00
 Coeff-En:   0.000D+00 0.000D+00 0.120D+00 0.880D+00
 Coeff:      0.114D-02-0.240D-02 0.245D-03-0.163D-02-0.127D-01-0.141D-01
 Coeff:     -0.722D-02 0.624D-01 0.485D+00 0.490D+00
 Gap=     0.122 Goal=   None    Shift=    0.000
 RMSDP=1.09D-05 MaxDP=4.37D-04 DE=-4.21D-05 OVMax= 1.37D-03

 Cycle  11  Pass 1  IDiag  1:
 RMSU=  6.49D-06    CP:  1.00D+00  5.21D-01  1.37D-01  7.05D-01  3.73D-01
                    CP:  5.31D-01  4.41D-01  8.26D-01  8.45D-01  5.95D-01
 E= -7517.81019042188     Delta-E=       -0.000012220462 Rises=F Damp=F
 DIIS: error= 4.14D-05 at cycle  11 NSaved=  11.
 NSaved=11 IEnMin=11 EnMin= -7517.81019042188     IErMin=11 ErrMin= 4.14D-05
 ErrMax= 4.14D-05  0.00D+00 EMaxC= 1.00D-01 BMatC= 2.54D-06 BMatP= 1.27D-05
 IDIUse=1 WtCom= 1.00D+00 WtEn= 0.00D+00
 Coeff-Com:  0.514D-03-0.110D-02 0.199D-03-0.157D-02-0.844D-02-0.114D-01
 Coeff-Com: -0.108D-01 0.228D-01 0.289D+00 0.358D+00 0.362D+00
 Coeff:      0.514D-03-0.110D-02 0.199D-03-0.157D-02-0.844D-02-0.114D-01
 Coeff:     -0.108D-01 0.228D-01 0.289D+00 0.358D+00 0.362D+00
 Gap=     0.122 Goal=   None    Shift=    0.000
 RMSDP=5.67D-06 MaxDP=2.46D-04 DE=-1.22D-05 OVMax= 6.96D-04

 Cycle  12  Pass 1  IDiag  1:
 RMSU=  2.82D-06    CP:  1.00D+00  5.21D-01  1.38D-01  7.05D-01  3.73D-01
                    CP:  5.31D-01  4.40D-01  8.23D-01  8.63D-01  6.50D-01
                    CP:  2.66D-01
 E= -7517.81019312575     Delta-E=       -0.000002703871 Rises=F Damp=F
 DIIS: error= 1.96D-05 at cycle  12 NSaved=  12.
 NSaved=12 IEnMin=12 EnMin= -7517.81019312575     IErMin=12 ErrMin= 1.96D-05
 ErrMax= 1.96D-05  0.00D+00 EMaxC= 1.00D-01 BMatC= 4.77D-07 BMatP= 2.54D-06
 IDIUse=1 WtCom= 1.00D+00 WtEn= 0.00D+00
 Coeff-Com:  0.159D-03-0.306D-03 0.772D-04-0.573D-03-0.284D-02-0.510D-02
 Coeff-Com: -0.645D-02-0.147D-02 0.790D-01 0.127D+00 0.295D+00 0.515D+00
 Coeff:      0.159D-03-0.306D-03 0.772D-04-0.573D-03-0.284D-02-0.510D-02
 Coeff:     -0.645D-02-0.147D-02 0.790D-01 0.127D+00 0.295D+00 0.515D+00
 Gap=     0.122 Goal=   None    Shift=    0.000
 RMSDP=2.10D-06 MaxDP=8.67D-05 DE=-2.70D-06 OVMax= 2.48D-04

 Cycle  13  Pass 1  IDiag  1:
 RMSU=  8.35D-07    CP:  1.00D+00  5.21D-01  1.38D-01  7.05D-01  3.73D-01
                    CP:  5.30D-01  4.40D-01  8.27D-01  8.73D-01  6.44D-01
                    CP:  4.93D-01  6.47D-01
 E= -7517.81019378637     Delta-E=       -0.000000660622 Rises=F Damp=F
 DIIS: error= 4.02D-06 at cycle  13 NSaved=  13.
 NSaved=13 IEnMin=13 EnMin= -7517.81019378637     IErMin=13 ErrMin= 4.02D-06
 ErrMax= 4.02D-06  0.00D+00 EMaxC= 1.00D-01 BMatC= 2.53D-08 BMatP= 4.77D-07
 IDIUse=1 WtCom= 1.00D+00 WtEn= 0.00D+00
 Coeff-Com:  0.392D-04-0.593D-04 0.423D-05 0.531D-04-0.914D-04-0.732D-03
 Coeff-Com: -0.148D-02-0.449D-02-0.853D-02 0.100D-01 0.836D-01 0.244D+00
 Coeff-Com:  0.677D+00
 Coeff:      0.392D-04-0.593D-04 0.423D-05 0.531D-04-0.914D-04-0.732D-03
 Coeff:     -0.148D-02-0.449D-02-0.853D-02 0.100D-01 0.836D-01 0.244D+00
 Coeff:      0.677D+00
 Gap=     0.122 Goal=   None    Shift=    0.000
 RMSDP=5.24D-07 MaxDP=3.10D-05 DE=-6.61D-07 OVMax= 5.90D-05

 Cycle  14  Pass 1  IDiag  1:
 RMSU=  3.33D-07    CP:  1.00D+00  5.21D-01  1.38D-01  7.05D-01  3.73D-01
                    CP:  5.30D-01  4.40D-01  8.27D-01  8.70D-01  6.54D-01
                    CP:  4.82D-01  7.14D-01  7.93D-01
 E= -7517.81019381353     Delta-E=       -0.000000027156 Rises=F Damp=F
 DIIS: error= 1.49D-06 at cycle  14 NSaved=  14.
 NSaved=14 IEnMin=14 EnMin= -7517.81019381353     IErMin=14 ErrMin= 1.49D-06
 ErrMax= 1.49D-06  0.00D+00 EMaxC= 1.00D-01 BMatC= 3.41D-09 BMatP= 2.53D-08
 IDIUse=1 WtCom= 1.00D+00 WtEn= 0.00D+00
 Coeff-Com:  0.943D-05-0.497D-05 0.173D-05 0.358D-04 0.423D-04-0.143D-03
 Coeff-Com: -0.394D-03-0.226D-02-0.859D-02-0.300D-02 0.240D-01 0.931D-01
 Coeff-Com:  0.388D+00 0.509D+00
 Coeff:      0.943D-05-0.497D-05 0.173D-05 0.358D-04 0.423D-04-0.143D-03
 Coeff:     -0.394D-03-0.226D-02-0.859D-02-0.300D-02 0.240D-01 0.931D-01
 Coeff:      0.388D+00 0.509D+00
 Gap=     0.122 Goal=   None    Shift=    0.000
 RMSDP=2.14D-07 MaxDP=1.34D-05 DE=-2.72D-08 OVMax= 2.70D-05

 Cycle  15  Pass 1  IDiag  1:
 RMSU=  1.20D-07    CP:  1.00D+00  5.21D-01  1.38D-01  7.05D-01  3.73D-01
                    CP:  5.30D-01  4.40D-01  8.28D-01  8.71D-01  6.56D-01
                    CP:  4.88D-01  7.23D-01  8.68D-01  6.60D-01
 E= -7517.81019381746     Delta-E=       -0.000000003934 Rises=F Damp=F
 DIIS: error= 4.18D-07 at cycle  15 NSaved=  15.
 NSaved=15 IEnMin=15 EnMin= -7517.81019381746     IErMin=15 ErrMin= 4.18D-07
 ErrMax= 4.18D-07  0.00D+00 EMaxC= 1.00D-01 BMatC= 2.77D-10 BMatP= 3.41D-09
 IDIUse=1 WtCom= 1.00D+00 WtEn= 0.00D+00
 Coeff-Com: -0.122D-05 0.639D-05-0.974D-06 0.191D-04 0.634D-04 0.895D-04
 Coeff-Com:  0.497D-04-0.675D-03-0.363D-02-0.399D-02-0.400D-03 0.107D-01
 Coeff-Com:  0.101D+00 0.268D+00 0.629D+00
 Coeff:     -0.122D-05 0.639D-05-0.974D-06 0.191D-04 0.634D-04 0.895D-04
 Coeff:      0.497D-04-0.675D-03-0.363D-02-0.399D-02-0.400D-03 0.107D-01
 Coeff:      0.101D+00 0.268D+00 0.629D+00
 Gap=     0.122 Goal=   None    Shift=    0.000
 RMSDP=6.50D-08 MaxDP=4.26D-06 DE=-3.93D-09 OVMax= 8.93D-06

 Cycle  16  Pass 1  IDiag  1:
 RMSU=  3.30D-08    CP:  1.00D+00  5.21D-01  1.38D-01  7.05D-01  3.73D-01
                    CP:  5.30D-01  4.40D-01  8.27D-01  8.72D-01  6.55D-01
                    CP:  4.89D-01  7.27D-01  8.81D-01  7.48D-01  7.85D-01
 E= -7517.81019381785     Delta-E=       -0.000000000387 Rises=F Damp=F
 DIIS: error= 1.62D-07 at cycle  16 NSaved=  16.
 NSaved=16 IEnMin=16 EnMin= -7517.81019381785     IErMin=16 ErrMin= 1.62D-07
 ErrMax= 1.62D-07  0.00D+00 EMaxC= 1.00D-01 BMatC= 3.86D-11 BMatP= 2.77D-10
 IDIUse=1 WtCom= 1.00D+00 WtEn= 0.00D+00
 Coeff-Com: -0.128D-05 0.330D-05-0.754D-06 0.637D-05 0.251D-04 0.603D-04
 Coeff-Com:  0.746D-04-0.330D-04-0.756D-03-0.117D-02-0.232D-02-0.308D-02
 Coeff-Com:  0.134D-01 0.799D-01 0.266D+00 0.647D+00
 Coeff:     -0.128D-05 0.330D-05-0.754D-06 0.637D-05 0.251D-04 0.603D-04
 Coeff:      0.746D-04-0.330D-04-0.756D-03-0.117D-02-0.232D-02-0.308D-02
 Coeff:      0.134D-01 0.799D-01 0.266D+00 0.647D+00
 Gap=     0.122 Goal=   None    Shift=    0.000
 RMSDP=1.81D-08 MaxDP=1.11D-06 DE=-3.87D-10 OVMax= 2.59D-06

 Cycle  17  Pass 1  IDiag  1:
 RMSU=  1.01D-08    CP:  1.00D+00  5.21D-01  1.38D-01  7.05D-01  3.73D-01
                    CP:  5.30D-01  4.40D-01  8.27D-01  8.71D-01  6.56D-01
                    CP:  4.89D-01  7.29D-01  8.86D-01  7.53D-01  8.41D-01
                    CP:  9.55D-01
 E= -7517.81019381803     Delta-E=       -0.000000000186 Rises=F Damp=F
 DIIS: error= 7.39D-08 at cycle  17 NSaved=  17.
 NSaved=17 IEnMin=17 EnMin= -7517.81019381803     IErMin=17 ErrMin= 7.39D-08
 ErrMax= 7.39D-08  0.00D+00 EMaxC= 1.00D-01 BMatC= 4.85D-12 BMatP= 3.86D-11
 IDIUse=1 WtCom= 1.00D+00 WtEn= 0.00D+00
 Coeff-Com: -0.802D-06 0.147D-05-0.807D-07 0.118D-05 0.740D-05 0.226D-04
 Coeff-Com:  0.342D-04 0.689D-04 0.627D-04-0.596D-04-0.928D-03-0.258D-02
 Coeff-Com: -0.558D-02 0.753D-02 0.566D-01 0.329D+00 0.616D+00
 Coeff:     -0.802D-06 0.147D-05-0.807D-07 0.118D-05 0.740D-05 0.226D-04
 Coeff:      0.342D-04 0.689D-04 0.627D-04-0.596D-04-0.928D-03-0.258D-02
 Coeff:     -0.558D-02 0.753D-02 0.566D-01 0.329D+00 0.616D+00
 Gap=     0.122 Goal=   None    Shift=    0.000
 RMSDP=8.84D-09 MaxDP=5.12D-07 DE=-1.86D-10 OVMax= 1.19D-06

 SCF Done:  E(RPBE1PBE) =  -7517.81019382     A.U. after   17 cycles
            NFock= 17  Conv=0.88D-08     -V/T= 2.1285
 KE= 6.661966865743D+03 PE=-2.466054883617D+04 EE= 6.946093502359D+03
 Leave Link  502 at Tue Mar  6 14:35:07 2018, MaxMem=   536870912 cpu:      3171.5
 (Enter /share/apps//mg09/l601.exe)
 Copying SCF densities to generalized density rwf, IOpCl= 0 IROHF=0.

 **********************************************************************

            Population analysis using the SCF density.

 **********************************************************************

 Orbital symmetries:
       Occupied  (A) (A) (A) (A) (A) (A) (A) (A) (A) (A) (A) (A)
                 (A) (A) (A) (A) (A) (A) (A) (A) (A) (A) (A) (A)
                 (A) (A) (A) (A) (A) (A) (A) (A) (A) (A) (A) (A)
                 (A) (A) (A) (A) (A) (A) (A) (A) (A) (A) (A) (A)
                 (A) (A) (A) (A) (A) (A) (A) (A) (A) (A) (A) (A)
                 (A) (A) (A) (A) (A) (A) (A) (A) (A) (A) (A) (A)
                 (A) (A) (A) (A) (A) (A) (A) (A) (A) (A) (A) (A)
                 (A) (A) (A) (A) (A) (A) (A) (A) (A) (A) (A) (A)
                 (A) (A) (A) (A) (A) (A) (A) (A) (A) (A) (A) (A)
                 (A) (A) (A) (A) (A) (A) (A) (A)
       Virtual   (A) (A) (A) (A) (A) (A) (A) (A) (A) (A) (A) (A)
                 (A) (A) (A) (A) (A) (A) (A) (A) (A) (A) (A) (A)
                 (A) (A) (A) (A) (A) (A) (A) (A) (A) (A) (A) (A)
                 (A) (A) (A) (A) (A) (A) (A) (A) (A) (A) (A) (A)
                 (A) (A) (A) (A) (A) (A) (A) (A) (A) (A) (A) (A)
                 (A) (A) (A) (A) (A) (A) (A) (A) (A) (A) (A) (A)
                 (A) (A) (A) (A) (A) (A) (A) (A) (A) (A) (A) (A)
                 (A) (A) (A) (A) (A) (A) (A) (A) (A) (A) (A) (A)
                 (A) (A) (A) (A) (A) (A) (A) (A) (A) (A) (A) (A)
                 (A) (A) (A) (A) (A) (A) (A) (A) (A) (A) (A) (A)
                 (A) (A) (A) (A) (A) (A) (A) (A) (A) (A) (A) (A)
                 (A) (A) (A) (A) (A) (A) (A) (A) (A) (A) (A) (A)
                 (A) (A) (A) (A) (A) (A) (A) (A) (A) (A) (A) (A)
                 (A) (A) (A) (A) (A) (A) (A) (A) (A) (A) (A) (A)
                 (A) (A) (A) (A) (A) (A) (A) (A) (A) (A) (A) (A)
                 (A) (A) (A) (A) (A) (A) (A) (A) (A) (A) (A) (A)
                 (A) (A) (A) (A) (A) (A) (A) (A) (A) (A) (A) (A)
                 (A) (A) (A) (A) (A) (A) (A) (A) (A) (A) (A) (A)
                 (A) (A) (A) (A) (A) (A) (A) (A) (A) (A) (A) (A)
                 (A) (A) (A) (A) (A) (A) (A) (A) (A) (A) (A) (A)
                 (A) (A) (A) (A) (A) (A) (A) (A) (A) (A) (A) (A)
                 (A) (A) (A) (A) (A) (A) (A) (A) (A) (A) (A) (A)
                 (A) (A) (A) (A) (A) (A) (A) (A) (A) (A) (A) (A)
                 (A) (A) (A) (A) (A) (A) (A) (A) (A) (A) (A) (A)
                 (A) (A) (A) (A) (A) (A) (A) (A) (A) (A) (A) (A)
                 (A) (A) (A) (A) (A) (A) (A) (A) (A) (A) (A) (A)
                 (A) (A) (A) (A) (A) (A) (A) (A) (A) (A) (A) (A)
                 (A) (A) (A) (A)
 The electronic state is 1-A.
 Alpha  occ. eigenvalues -- -399.10103-399.09606-399.09505 -49.91675 -49.91156
 Alpha  occ. eigenvalues --  -49.91113 -44.39765 -44.39731 -44.39692 -44.39262
 Alpha  occ. eigenvalues --  -44.39200 -44.39191 -44.39180 -44.39179 -44.39121
 Alpha  occ. eigenvalues --   -6.28173  -6.27651  -6.27627  -6.02940  -6.02781
 Alpha  occ. eigenvalues --   -6.01142  -6.01021  -5.13371  -5.12770  -4.43638
 Alpha  occ. eigenvalues --   -4.43538  -4.43391  -4.43162  -4.43069  -4.43041
 Alpha  occ. eigenvalues --   -4.42969  -4.42878  -4.42836  -3.75194  -3.75100
 Alpha  occ. eigenvalues --   -3.75037  -3.74957  -3.74955  -3.74777  -3.73440
 Alpha  occ. eigenvalues --   -3.73337  -3.73310  -3.73171  -3.73084  -3.72955
 Alpha  occ. eigenvalues --   -3.46654  -3.46479  -3.46330  -3.46016  -3.45879
 Alpha  occ. eigenvalues --   -3.45763  -1.23094  -1.23086  -1.22934  -1.22891
 Alpha  occ. eigenvalues --   -1.22834  -1.22638  -1.22595  -1.22550  -1.22530
 Alpha  occ. eigenvalues --   -1.22467  -1.22441  -1.22370  -1.22344  -1.22259
 Alpha  occ. eigenvalues --   -1.22199  -1.09210  -1.08949  -1.08841  -1.08779
 Alpha  occ. eigenvalues --   -1.08691  -1.08639  -1.08577  -1.08458  -1.08375
 Alpha  occ. eigenvalues --   -1.08288  -1.07072  -1.07004  -1.06960  -1.06886
 Alpha  occ. eigenvalues --   -1.06871  -1.06752  -1.06739  -1.06674  -1.06606
 Alpha  occ. eigenvalues --   -1.06533  -1.02893  -1.02809  -1.02675  -1.02668
 Alpha  occ. eigenvalues --   -1.02522  -1.02171  -1.02164  -1.02043  -1.01903
 Alpha  occ. eigenvalues --   -1.01865  -0.67314  -0.62231  -0.59438  -0.54816
 Alpha  occ. eigenvalues --   -0.53706  -0.45489  -0.44730  -0.42859  -0.39861
 Alpha  occ. eigenvalues --   -0.29113  -0.27671  -0.27187  -0.25459  -0.25422
 Alpha  occ. eigenvalues --   -0.24602  -0.23703  -0.21788  -0.21529  -0.21083
 Alpha  occ. eigenvalues --   -0.20089
 Alpha virt. eigenvalues --   -0.07926  -0.07449  -0.06757  -0.06533  -0.06064
 Alpha virt. eigenvalues --   -0.06059  -0.05397  -0.05143  -0.04514  -0.03433
 Alpha virt. eigenvalues --   -0.02776  -0.02556  -0.01205   0.03969   0.04932
 Alpha virt. eigenvalues --    0.05021   0.06386   0.08216   0.08540   0.08877
 Alpha virt. eigenvalues --    0.09199   0.09528   0.09890   0.10378   0.10686
 Alpha virt. eigenvalues --    0.10840   0.11667   0.11996   0.12390   0.12687
 Alpha virt. eigenvalues --    0.13511   0.15514   0.16241   0.16458   0.16913
 Alpha virt. eigenvalues --    0.18166   0.19113   0.19684   0.19867   0.20519
 Alpha virt. eigenvalues --    0.20932   0.21733   0.21932   0.23424   0.24129
 Alpha virt. eigenvalues --    0.24285   0.25897   0.26385   0.28679   0.29130
 Alpha virt. eigenvalues --    0.29886   0.29937   0.30129   0.30578   0.31069
 Alpha virt. eigenvalues --    0.31662   0.31964   0.32470   0.33109   0.34112
 Alpha virt. eigenvalues --    0.34290   0.34467   0.35692   0.36067   0.36863
 Alpha virt. eigenvalues --    0.39522   0.40296   0.41016   0.41410   0.42015
 Alpha virt. eigenvalues --    0.42743   0.43234   0.43657   0.44683   0.45133
 Alpha virt. eigenvalues --    0.45731   0.46152   0.46505   0.46943   0.47287
 Alpha virt. eigenvalues --    0.48142   0.49351   0.49749   0.50371   0.51541
 Alpha virt. eigenvalues --    0.52807   0.53434   0.54014   0.54717   0.55918
 Alpha virt. eigenvalues --    0.56118   0.57106   0.57827   0.58108   0.59328
 Alpha virt. eigenvalues --    0.60293   0.61364   0.61677   0.61861   0.62606
 Alpha virt. eigenvalues --    0.62772   0.63421   0.64332   0.65078   0.65571
 Alpha virt. eigenvalues --    0.66257   0.67505   0.67836   0.68138   0.69235
 Alpha virt. eigenvalues --    0.70418   0.71439   0.72756   0.73067   0.74341
 Alpha virt. eigenvalues --    0.75093   0.76226   0.76890   0.77551   0.78228
 Alpha virt. eigenvalues --    0.79290   0.80235   0.80611   0.81708   0.81900
 Alpha virt. eigenvalues --    0.82226   0.84115   0.84895   0.85376   0.86364
 Alpha virt. eigenvalues --    0.87076   0.87611   0.88676   0.89196   0.89584
 Alpha virt. eigenvalues --    0.90272   0.91366   0.92264   0.92408   0.93513
 Alpha virt. eigenvalues --    0.94384   0.94767   0.95850   0.96808   0.97410
 Alpha virt. eigenvalues --    0.98887   0.99059   1.00066   1.00735   1.02295
 Alpha virt. eigenvalues --    1.02585   1.03590   1.04704   1.05379   1.07237
 Alpha virt. eigenvalues --    1.08171   1.09919   1.10492   1.11629   1.12565
 Alpha virt. eigenvalues --    1.14032   1.15135   1.15199   1.15843   1.17098
 Alpha virt. eigenvalues --    1.17938   1.18211   1.18897   1.19436   1.19742
 Alpha virt. eigenvalues --    1.20352   1.21046   1.21397   1.21774   1.22330
 Alpha virt. eigenvalues --    1.22716   1.22791   1.23225   1.23493   1.24048
 Alpha virt. eigenvalues --    1.24969   1.25301   1.25891   1.27020   1.27478
 Alpha virt. eigenvalues --    1.27772   1.28181   1.28651   1.28996   1.29675
 Alpha virt. eigenvalues --    1.30324   1.31203   1.32336   1.32847   1.33178
 Alpha virt. eigenvalues --    1.34817   1.36204   1.37023   1.38373   1.39571
 Alpha virt. eigenvalues --    1.40354   1.40927   1.41879   1.42733   1.44614
 Alpha virt. eigenvalues --    1.45133   1.46408   1.47119   1.48511   1.48610
 Alpha virt. eigenvalues --    1.49417   1.49776   1.50044   1.51318   1.52938
 Alpha virt. eigenvalues --    1.53280   1.54219   1.55513   1.58339   1.59327
 Alpha virt. eigenvalues --    1.64257   1.67065   1.71050   2.07386   2.08589
 Alpha virt. eigenvalues --    2.08875   2.11580   2.12781   2.13377   2.15359
 Alpha virt. eigenvalues --    2.15983   2.18908   2.19899   2.20259   2.21396
 Alpha virt. eigenvalues --    2.22110   2.23161   2.24081   2.25327   2.26209
 Alpha virt. eigenvalues --    2.26928   2.27433   2.29524   2.29830   2.31505
 Alpha virt. eigenvalues --    2.33430   2.34240   2.34910   2.37770   2.39715
 Alpha virt. eigenvalues --    2.41301   2.42086   2.43193   2.45911   2.48318
 Alpha virt. eigenvalues --    2.49015   2.49965   2.51657   2.53391   2.55979
 Alpha virt. eigenvalues --    2.56739   2.59042   2.61291   2.64079   2.67539
 Alpha virt. eigenvalues --    2.68966   2.70544   2.71681   2.73892   2.74554
 Alpha virt. eigenvalues --    2.77064   2.77734   2.78819   2.79201   2.81343
 Alpha virt. eigenvalues --    2.82113   2.84638   2.85957   2.88114   2.95157
 Alpha virt. eigenvalues --    3.21144   3.24371   3.31522   3.35075   3.37352
 Alpha virt. eigenvalues --    3.44782   3.93530   3.97109   3.98223   4.00128
 Alpha virt. eigenvalues --    4.00549   4.02504   4.03195   4.06517   4.13887
 Alpha virt. eigenvalues --    5.28260   5.32051   5.36250  35.39130  35.40461
 Alpha virt. eigenvalues --   35.43154  35.43614  35.44424  35.47146  35.49177
 Alpha virt. eigenvalues --   35.51275  35.53325  35.56451  35.57710  35.64712
 Alpha virt. eigenvalues --   35.87390  35.94616  35.96532  36.11438  36.19562
 Alpha virt. eigenvalues --   36.22672  36.94473  36.99409  37.02157  37.04859
 Alpha virt. eigenvalues --   37.08041  37.17666 113.57811 113.59455 120.21402
 Alpha virt. eigenvalues --  120.23922 120.24158 120.26023
          Condensed to atoms (all electrons):
               1          2          3          4          5          6
     1  Ge  31.553082  -0.016972   0.069229   0.106207   0.123800  -0.029760
     2  Bi  -0.016972  22.403581  -0.029062   0.123032  -0.024268   0.187506
     3  Bi   0.069229  -0.029062  22.247328  -0.024297   0.184996   0.124340
     4  Sn   0.106207   0.123032  -0.024297  21.357063  -0.016848   0.074142
     5  Bi   0.123800  -0.024268   0.184996  -0.016848  22.381613  -0.028976
     6  Bi  -0.029760   0.187506   0.124340   0.074142  -0.028976  22.276115
     7  Ge  -0.016299   0.185637   0.114677  -0.014417   0.178275   0.122864
     8  Sn   0.156611   0.172267  -0.016837   0.143901   0.178943  -0.018320
     9  Ge   0.154102  -0.015259   0.167564   0.159194  -0.017217   0.152720
               7          8          9
     1  Ge  -0.016299   0.156611   0.154102
     2  Bi   0.185637   0.172267  -0.015259
     3  Bi   0.114677  -0.016837   0.167564
     4  Sn  -0.014417   0.143901   0.159194
     5  Bi   0.178275   0.178943  -0.017217
     6  Bi   0.122864  -0.018320   0.152720
     7  Ge  31.603037  -0.008128  -0.012354
     8  Sn  -0.008128  21.404200  -0.013636
     9  Ge  -0.012354  -0.013636  31.619269
 Mulliken charges:
               1
     1  Ge  -0.099999
     2  Bi   0.013537
     3  Bi   0.162062
     4  Sn   0.092024
     5  Bi   0.039682
     6  Bi   0.139369
     7  Ge  -0.153292
     8  Sn   0.000999
     9  Ge  -0.194383
 Sum of Mulliken charges =   0.00000
 Mulliken charges with hydrogens summed into heavy atoms:
               1
     1  Ge  -0.099999
     2  Bi   0.013537
     3  Bi   0.162062
     4  Sn   0.092024
     5  Bi   0.039682
     6  Bi   0.139369
     7  Ge  -0.153292
     8  Sn   0.000999
     9  Ge  -0.194383
 Electronic spatial extent (au):  <R**2>=           5980.4988
 Charge=              0.0000 electrons
 Dipole moment (field-independent basis, Debye):
    X=              0.0260    Y=             -0.6434    Z=             -0.9609  Tot=              1.1567
 Quadrupole moment (field-independent basis, Debye-Ang):
   XX=           -215.8552   YY=           -215.5886   ZZ=           -223.2337
   XY=              0.5216   XZ=              1.0036   YZ=             -0.4368
 Traceless Quadrupole moment (field-independent basis, Debye-Ang):
   XX=              2.3707   YY=              2.6372   ZZ=             -5.0079
   XY=              0.5216   XZ=              1.0036   YZ=             -0.4368
 Octapole moment (field-independent basis, Debye-Ang**2):
  XXX=            -22.3528  YYY=            -40.4849  ZZZ=            -92.4074  XYY=             -6.6299
  XXY=            -15.4808  XXZ=            -37.3303  XZZ=             -0.0293  YZZ=             -4.0957
  YYZ=            -41.2900  XYZ=              1.7514
 Hexadecapole moment (field-independent basis, Debye-Ang**3):
 XXXX=          -3407.3416 YYYY=          -3379.8341 ZZZZ=          -2896.7252 XXXY=             -0.1935
 XXXZ=            -42.3449 YYYX=            -37.4864 YYYZ=             -1.0515 ZZZX=            -37.5945
 ZZZY=            -23.1468 XXYY=          -1086.5067 XXZZ=          -1054.5747 YYZZ=          -1060.4900
 XXYZ=            -12.8186 YYXZ=            -17.7895 ZZXY=             -6.3997
 N-N= 3.534678274250D+03 E-N=-2.466054884130D+04  KE= 6.661966865743D+03
 No NMR shielding tensors so no spin-rotation constants.
 Leave Link  601 at Tue Mar  6 14:35:07 2018, MaxMem=   536870912 cpu:         1.1
 (Enter /share/apps//mg09/l701.exe)
 Compute integral first derivatives.
 ... and contract with generalized density number  0.
   1 Symmetry operations used in ECPInt.
 ECPInt:  NShTT=   10440 NPrTT=   41973 LenC2=    9657 LenP2D=   27502.
 LDataN:  DoStor=T MaxTD1= 9 Len=  602
 Leave Link  701 at Tue Mar  6 14:35:24 2018, MaxMem=   536870912 cpu:        66.5
 (Enter /share/apps//mg09/l702.exe)
 L702 exits ... SP integral derivatives will be done elsewhere.
 Leave Link  702 at Tue Mar  6 14:35:24 2018, MaxMem=   536870912 cpu:         0.1
 (Enter /share/apps//mg09/l703.exe)
 Compute integral first derivatives, UseDBF=F ICtDFT=           0.
 Integral derivatives from FoFJK, PRISM(SPDF).
 Calling FoFJK, ICntrl=      2127 FMM=F ISym2X=0 I1Cent= 0 IOpClX= 0 NMat=1 NMatS=1 NMatT=0.
 FoFJK:  IHMeth= 1 ICntrl=    2127 DoSepK=F KAlg= 0 I1Cent=   0 FoldK=F
 IRaf=         0 NMat=   1 IRICut=       1 DoRegI=T DoRafI=F ISym2E= 0.
 FoFCou: FMM=F IPFlag=           0 FMFlag=      100000 FMFlg1=         800
         NFxFlg=           0 DoJE=F BraDBF=F KetDBF=F FulRan=T
         wScrn=  0.000000 ICntrl=    2127 IOpCl=  0 I1Cent=           0 NGrid=           0
         NMat0=    1 NMatS0=      1 NMatT0=    0 NMatD0=    1 NMtDS0=    0 NMtDT0=    0
 Symmetry not used in FoFCou.
 Defaulting to unpruned grid for atomic number  83.
 Defaulting to unpruned grid for atomic number  83.
 Defaulting to unpruned grid for atomic number  83.
 Defaulting to unpruned grid for atomic number  83.
 Leave Link  703 at Tue Mar  6 14:38:06 2018, MaxMem=   536870912 cpu:       645.7
 (Enter /share/apps//mg09/l716.exe)
 Dipole        = 1.02448105D-02-2.53129263D-01-3.78032855D-01
 ***** Axes restored to original set *****
 -------------------------------------------------------------------
 Center     Atomic                   Forces (Hartrees/Bohr)
 Number     Number              X              Y              Z
 -------------------------------------------------------------------
      1       32          -0.010861597    0.004389319   -0.009383858
      2       83           0.007135722    0.002744920    0.003376374
      3       83          -0.007676838   -0.005390426    0.002530760
      4       50           0.013388404    0.000355275   -0.006409918
      5       83          -0.007160430    0.004896673    0.002537536
      6       83           0.004632719   -0.007151417    0.003454707
      7       32          -0.001876858   -0.000301624    0.011096260
      8       50           0.002096751    0.012919743    0.001157402
      9       32           0.000322127   -0.012462464   -0.008359264
 -------------------------------------------------------------------
 Cartesian Forces:  Max     0.013388404 RMS     0.006941359
 Force constants in Cartesian coordinates: 
                1             2             3             4             5 
      1  0.161234D+00
      2 -0.148762D-01  0.165331D+00
      3  0.308565D-01 -0.843886D-02  0.208524D+00
      4 -0.100166D-02  0.919928D-03 -0.951629D-02  0.147078D+00
      5 -0.282612D-02  0.521777D-02 -0.240516D-02  0.294035D-01  0.125199D+00
      6 -0.156565D-02  0.203640D-02 -0.118090D-02  0.200561D-01  0.351212D-02
      7 -0.264746D-01  0.936294D-03 -0.142958D-01 -0.258845D-02 -0.214427D-02
      8 -0.188936D-01 -0.318340D-01  0.822849D-02 -0.798529D-02  0.198938D-02
      9  0.122223D-01  0.231798D-01 -0.369174D-01  0.227579D-03  0.212093D-02
     10 -0.482339D-01 -0.116354D-02  0.165702D-01 -0.249817D-01 -0.929712D-02
     11  0.975984D-02 -0.170481D-01  0.887031D-03 -0.204524D-02 -0.182170D-01
     12 -0.194300D-01  0.484820D-02 -0.318174D-01  0.204048D-01 -0.312459D-02
     13 -0.253211D-01  0.763491D-02 -0.894996D-02 -0.757179D-02  0.243489D-02
     14  0.108676D-01 -0.272104D-01  0.155800D-02  0.176618D-02  0.333126D-02
     15  0.229676D-01 -0.201327D-01 -0.637209D-01 -0.193104D-02 -0.336694D-02
     16  0.184900D-02  0.402104D-02 -0.760070D-02 -0.240599D-01 -0.240987D-01
     17  0.774088D-02  0.386151D-03  0.932057D-02  0.890575D-02 -0.625264D-01
     18 -0.466491D-02  0.192565D-02  0.216912D-03 -0.845068D-02 -0.151316D-01
     19  0.408026D-02 -0.105327D-02  0.280562D-02 -0.581686D-01 -0.122079D-01
     20  0.689627D-03  0.550784D-02  0.223243D-02 -0.206548D-01 -0.232661D-01
     21 -0.691386D-02  0.161282D-02 -0.584012D-02 -0.197118D-02 -0.163359D-02
     22 -0.331830D-01 -0.212201D-01 -0.115625D-01 -0.303174D-01  0.182164D-01
     23  0.221390D-02 -0.415696D-01  0.724714D-02 -0.592423D-02 -0.343831D-01
     24 -0.197988D-01 -0.239001D-01 -0.336003D-01 -0.129475D-01  0.256092D-01
     25 -0.329488D-01  0.248009D-01  0.169292D-02  0.161147D-02  0.519353D-03
     26  0.532409D-02 -0.587807D-01 -0.186296D-01 -0.438585D-02  0.265522D-02
     27 -0.136732D-01  0.188688D-01 -0.356638D-01 -0.587175D-02 -0.558039D-02
                6             7             8             9            10 
      6  0.134722D+00
      7 -0.545352D-02  0.198301D+00
      8 -0.278933D-02  0.404472D-01  0.181544D+00
      9  0.490391D-02 -0.230492D-01  0.812403D-02  0.161875D+00
     10 -0.155020D-01 -0.436695D-02 -0.757844D-02  0.403432D-02  0.174252D+00
     11 -0.131247D-01 -0.324190D-02  0.458104D-02 -0.438486D-03  0.110461D-01
     12 -0.521182D-01  0.894893D-02  0.412961D-02  0.381362D-02 -0.426622D-01
     13 -0.243599D-02 -0.273757D-01 -0.211426D-01  0.389132D-02 -0.191442D-02
     14 -0.338873D-02  0.171862D-01 -0.657059D-01 -0.122812D-01  0.518458D-02
     15  0.419120D-02  0.916855D-02 -0.839293D-03 -0.206606D-01  0.164153D-02
     16 -0.923081D-02 -0.524020D-01  0.207877D-01 -0.111176D-01 -0.224175D-01
     17  0.547284D-02 -0.149991D-01 -0.293761D-01  0.247708D-02  0.143524D-01
     18 -0.251702D-01  0.269266D-02  0.536121D-02 -0.163161D-01 -0.302570D-02
     19  0.303397D-01 -0.368190D-01 -0.168907D-01 -0.263016D-01  0.216758D-02
     20  0.159460D-01 -0.147297D-01 -0.272193D-01 -0.269977D-01 -0.629497D-03
     21 -0.384666D-01  0.462188D-02 -0.229021D-02 -0.459310D-01  0.892860D-02
     22 -0.147999D-01  0.209195D-02 -0.386434D-03 -0.144717D-02 -0.318002D-01
     23 -0.580881D-03 -0.864815D-02 -0.303132D-02  0.924475D-03 -0.651218D-02
     24 -0.289027D-01  0.169894D-02  0.338516D-02  0.590078D-02  0.127973D-01
     25 -0.140803D-02 -0.503659D-01  0.116421D-01  0.415400D-01 -0.427045D-01
     26 -0.708374D-02 -0.148066D-01 -0.309476D-01  0.289096D-02 -0.540231D-02
     27  0.202151D-02  0.156676D-01 -0.233097D-01 -0.566684D-01  0.172180D-01
               11            12            13            14            15 
     11  0.136085D+00
     12  0.587855D-02  0.163601D+00
     13  0.626203D-03  0.833553D-02  0.144824D+00
     14  0.449590D-02 -0.332742D-02 -0.319563D-01  0.150414D+00
     15  0.172515D-02  0.200682D-02 -0.215564D-01  0.292040D-02  0.135724D+00
     16 -0.925541D-02  0.188120D-01 -0.276393D-03  0.205261D-02  0.289968D-02
     17 -0.290823D-01  0.435909D-02  0.919629D-02 -0.121671D-02 -0.156243D-02
     18  0.208832D-01 -0.283704D-01 -0.139217D-02  0.300608D-02  0.576284D-02
     19  0.151161D-02  0.279091D-03 -0.392252D-01  0.175693D-01 -0.253345D-01
     20  0.534045D-02  0.226998D-02  0.197666D-01 -0.334976D-01  0.298857D-01
     21 -0.456317D-03 -0.334352D-02  0.683050D-03  0.216946D-02 -0.452375D-01
     22  0.250659D-01  0.129520D-01 -0.453923D-01 -0.241379D-01  0.129129D-01
     23 -0.430614D-01  0.318273D-02  0.740619D-02 -0.320678D-01 -0.245979D-02
     24 -0.219259D-01 -0.240894D-01  0.177799D-01  0.170155D-01 -0.221497D-01
     25 -0.334671D-01 -0.764014D-02  0.225284D-02  0.146766D-02 -0.768318D-03
     26 -0.430932D-01 -0.182162D-01  0.603375D-02  0.145756D-02 -0.617009D-02
     27  0.657141D-02 -0.296828D-01  0.364472D-02 -0.767215D-02  0.408361D-02
               16            17            18            19            20 
     16  0.156728D+00
     17 -0.360935D-01  0.196899D+00
     18  0.232365D-01 -0.748883D-02  0.162973D+00
     19 -0.317771D-01  0.173155D-01  0.206679D-01  0.143390D+00
     20  0.227697D-01 -0.381162D-01 -0.286792D-01 -0.419197D-02  0.111660D+00
     21 -0.159097D-02  0.311806D-02 -0.408587D-01 -0.652531D-02  0.989016D-03
     22  0.375997D-02 -0.248935D-02  0.135717D-02  0.746904D-02 -0.207935D-02
     23  0.605855D-02 -0.497148D-02  0.260184D-02 -0.207043D-02 -0.296185D-02
     24 -0.117882D-02  0.318025D-02  0.510010D-02  0.225960D-02  0.404465D-02
     25 -0.314044D-01 -0.392886D-02 -0.304208D-01  0.888294D-02 -0.940673D-03
     26  0.137581D-01 -0.319954D-01  0.175217D-01  0.177591D-04  0.255296D-02
     27 -0.142294D-01 -0.188766D-01 -0.633376D-01  0.180943D-02  0.309119D-03
               21            22            23            24            25 
     21  0.188088D+00
     22  0.211391D-02  0.117803D+00
     23  0.350341D-02  0.918710D-02  0.166889D+00
     24 -0.390189D-02 -0.177629D-02 -0.832933D-02  0.982658D-01
     25  0.653889D-03  0.956939D-02 -0.171075D-02  0.116575D-02  0.135107D+00
     26 -0.701265D-02 -0.215628D-02 -0.484253D-02  0.920557D-03  0.161734D-02
     27 -0.450841D-02  0.249874D-03 -0.608959D-02  0.337731D-02 -0.481527D-02
               26            27 
     26  0.162994D+00
     27  0.357791D-01  0.180379D+00
 Leave Link  716 at Tue Mar  6 14:38:06 2018, MaxMem=   536870912 cpu:         0.1
 (Enter /share/apps//mg09/l103.exe)

 GradGradGradGradGradGradGradGradGradGradGradGradGradGradGradGradGradGrad
 Berny optimization.
 Search for a local minimum.
 Step number   1 out of a maximum of  100
 All quantities printed in internal units (Hartrees-Bohrs-Radians)
 Second derivative matrix not updated -- first step.
 ITU=  0
     Eigenvalues ---    0.08101   0.11892   0.12394   0.12828   0.13742
     Eigenvalues ---    0.14418   0.14963   0.15477   0.15861   0.16424
     Eigenvalues ---    0.17971   0.22691   0.23228   0.23644   0.24351
     Eigenvalues ---    0.24644   0.26628   0.28754   0.29455   0.30569
     Eigenvalues ---    0.31456
 RFO step:  Lambda=-7.81038227D-03 EMin= 8.10116618D-02
 Linear search not attempted -- first point.
 TrRot= -0.001399 -0.001199 -0.000585  0.830049 -0.000158 -0.830080
 Variable       Old X    -DE/DX   Delta X   Delta X   Delta X     New X
                                 (Linear)    (Quad)   (Total)
    X1        2.24931  -0.01086   0.00000  -0.05373  -0.05560   2.19371
    Y1       -1.15262   0.00439   0.00000   0.02353   0.02179  -1.13083
    Z1        4.12077  -0.00938   0.00000  -0.05163  -0.05211   4.06866
    X2       -3.86418   0.00714   0.00000   0.05620   0.05498  -3.80921
    Y2       -1.62731   0.00274   0.00000   0.01517   0.01434  -1.61297
    Z2       -2.15950   0.00338   0.00000   0.02934   0.02816  -2.13134
    X3        3.59396  -0.00768   0.00000  -0.04328  -0.04457   3.54939
    Y3        2.84137  -0.00539   0.00000  -0.03392  -0.03521   2.80617
    Z3       -0.21484   0.00253   0.00000   0.00956   0.00968  -0.20516
    X4       -3.50227   0.01339   0.00000   0.07279   0.07100  -3.43127
    Y4       -0.37843   0.00036   0.00000   0.00455   0.00304  -0.37538
    Z4        3.64050  -0.00641   0.00000  -0.04225  -0.04324   3.59726
    X5        3.86544  -0.00716   0.00000  -0.05310  -0.05447   3.81098
    Y5       -2.75106   0.00490   0.00000   0.03323   0.03203  -2.71902
    Z5       -1.06339   0.00254   0.00000   0.01707   0.01658  -1.04681
    X6       -2.25137   0.00463   0.00000   0.02804   0.02687  -2.22451
    Y6        3.70858  -0.00715   0.00000  -0.04606  -0.04708   3.66150
    Z6       -1.02693   0.00345   0.00000   0.02150   0.02110  -1.00583
    X7        0.74786  -0.00188   0.00000  -0.00925  -0.01017   0.73768
    Y7        0.27436  -0.00030   0.00000  -0.00096  -0.00167   0.27269
    Z7       -4.45788   0.01110   0.00000   0.06191   0.06144  -4.39644
    X8       -0.77396   0.00210   0.00000   0.01443   0.01272  -0.76123
    Y8       -4.99065   0.01292   0.00000   0.08967   0.08833  -4.90232
    Z8        1.46599   0.00116   0.00000   0.00418   0.00295   1.46893
    X9        0.19884   0.00032   0.00000   0.00095  -0.00075   0.19809
    Y9        3.63489  -0.01246   0.00000  -0.07392  -0.07558   3.55931
    Z9        3.93844  -0.00836   0.00000  -0.04440  -0.04455   3.89388
         Item               Value     Threshold  Converged?
 Maximum Force            0.013388     0.000450     NO 
 RMS     Force            0.006941     0.000300     NO 
 Maximum Displacement     0.088329     0.001800     NO 
 RMS     Displacement     0.042052     0.001200     NO 
 Predicted change in Energy=-4.091589D-03
 Lowest energy point so far.  Saving SCF results.
 GradGradGradGradGradGradGradGradGradGradGradGradGradGradGradGradGradGrad

 Leave Link  103 at Tue Mar  6 14:38:06 2018, MaxMem=   536870912 cpu:         0.1
 (Enter /share/apps//mg09/l202.exe)
                          Input orientation:                          
 ---------------------------------------------------------------------
 Center     Atomic      Atomic             Coordinates (Angstroms)
 Number     Number       Type             X           Y           Z
 ---------------------------------------------------------------------
      1         32           0        1.160861   -0.598412    2.153040
      2         83           0       -2.015746   -0.853545   -1.127855
      3         83           0        1.878254    1.484960   -0.108565
      4         50           0       -1.815752   -0.198644    1.903586
      5         83           0        2.016682   -1.438845   -0.553948
      6         83           0       -1.177158    1.937584   -0.532264
      7         32           0        0.390365    0.144302   -2.326494
      8         50           0       -0.402828   -2.594198    0.777326
      9         32           0        0.104827    1.883503    2.060554
 ---------------------------------------------------------------------
                    Distance matrix (angstroms):
                    1          2          3          4          5
     1  Ge   0.000000
     2  Bi   4.573860   0.000000
     3  Bi   3.157522   4.655190   0.000000
     4  Sn   3.013680   3.107817   4.530889   0.000000
     5  Bi   2.960834   4.114902   2.960771   4.718593   0.000000
     6  Bi   4.371322   2.974620   3.117680   3.302217   4.647725
     7  Ge   4.605595   2.867369   2.988375   4.783110   2.879788
     8  Sn   2.884593   3.043203   4.756854   3.000582   2.993519
     9  Ge   2.698827   4.706827   2.830011   2.837006   4.639915
                    6          7          8          9
     6  Bi   0.000000
     7  Ge   2.981987   0.000000
     8  Sn   4.780340   4.214526   0.000000
     9  Ge   2.892942   4.727848   4.685530   0.000000
 Stoichiometry    Bi4Ge3Sn2
 Framework group  C1[X(Bi4Ge3Sn2)]
 Deg. of freedom    21
 Full point group                 C1      NOp   1
 RotChk:  IX=0 Diff= 4.59D-03
 Largest Abelian subgroup         C1      NOp   1
 Largest concise Abelian subgroup C1      NOp   1
                         Standard orientation:                         
 ---------------------------------------------------------------------
 Center     Atomic      Atomic             Coordinates (Angstroms)
 Number     Number       Type             X           Y           Z
 ---------------------------------------------------------------------
      1         32           0       -1.160302    0.604139    2.148213
      2         83           0        2.019801    0.846160   -1.130288
      3         83           0       -1.881832   -1.479822   -0.111532
      4         50           0        1.815348    0.195437    1.901755
      5         83           0       -2.011393    1.443842   -0.560491
      6         83           0        1.172608   -1.941815   -0.532105
      7         32           0       -0.388185   -0.146119   -2.329784
      8         50           0        0.410337    2.593745    0.771464
      9         32           0       -0.111401   -1.880939    2.059560
 ---------------------------------------------------------------------
 Rotational constants (GHZ):      0.1038994      0.0973455      0.0819859
 Leave Link  202 at Tue Mar  6 14:38:07 2018, MaxMem=   536870912 cpu:         0.0
 (Enter /share/apps//mg09/l301.exe)
 Standard basis: def2TZVP (5D, 7F)
 Ernie: Thresh=  0.10000D-02 Tol=  0.10000D-05 Strict=F.
 There are   519 symmetry adapted cartesian basis functions of A   symmetry.
 There are   444 symmetry adapted basis functions of A   symmetry.
   444 basis functions,   963 primitive gaussians,   519 cartesian basis functions
   116 alpha electrons      116 beta electrons
       nuclear repulsion energy      3588.0377849564 Hartrees.
 IExCor= 1009 DFT=T Ex+Corr=PBE1PBE ExCW=0 ScaHFX=  0.250000
 ScaDFX=  0.750000  0.750000  1.000000  1.000000 ScalE2=  1.000000  1.000000
 IRadAn=      0 IRanWt=     -1 IRanGd=            0 ICorTp=0 IEmpDi=  4
 NAtoms=    9 NActive=    9 NUniq=    9 SFac= 1.00D+00 NAtFMM=   60 NAOKFM=F Big=F
 Integral buffers will be    131072 words long.
 Raffenetti 2 integral format.
 Two-electron integral symmetry is turned on.
 Leave Link  301 at Tue Mar  6 14:38:07 2018, MaxMem=   536870912 cpu:         0.2
 (Enter /share/apps//mg09/l302.exe)
 NPDir=0 NMtPBC=     1 NCelOv=     1 NCel=       1 NClECP=     1 NCelD=      1
         NCelK=      1 NCelE2=     1 NClLst=     1 CellRange=     0.0.
 One-electron integrals computed using PRISM.
   1 Symmetry operations used in ECPInt.
 ECPInt:  NShTT=   10440 NPrTT=   41973 LenC2=    9687 LenP2D=   27675.
 LDataN:  DoStor=T MaxTD1= 8 Len=  415
 NBasis=   444 RedAO= T EigKep=  1.14D-03  NBF=   444
 NBsUse=   444 1.00D-06 EigRej= -1.00D+00 NBFU=   444
 Precomputing XC quadrature grid using
 IXCGrd= 4 IRadAn=           0 IRanWt=          -1 IRanGd=           0 AccXCQ= 0.00D+00.
 Defaulting to unpruned grid for atomic number  50.
 Defaulting to unpruned grid for atomic number  50.
 Defaulting to unpruned grid for atomic number  83.
 Generated NRdTot=       0 NPtTot=           0 NUsed=           0 NTot=          32
 NSgBfM=   505   505   505   505   505 MxSgAt=     9 MxSgA2=     9.
 Leave Link  302 at Tue Mar  6 14:38:14 2018, MaxMem=   536870912 cpu:        26.5
 (Enter /share/apps//mg09/l303.exe)
 DipDrv:  MaxL=1.
 Leave Link  303 at Tue Mar  6 14:38:14 2018, MaxMem=   536870912 cpu:         0.2
 (Enter /share/apps//mg09/l401.exe)
 Initial guess from the checkpoint file:  "Isomer_35.chk"
 B after Tr=     0.000000    0.000000    0.000000
         Rot=    0.999999    0.000503    0.000502    0.001400 Ang=   0.18 deg.
 Guess basis will be translated and rotated to current coordinates.
 JPrj=2 DoOrth=T DoCkMO=T.
 Generating alternative initial guess.
 ExpMin= 4.62D-02 ExpMax= 4.66D+05 ExpMxC= 4.50D+03 IAcc=2 IRadAn=         4 AccDes= 0.00D+00
 Harris functional with IExCor= 1009 and IRadAn=       4 diagonalized for initial guess.
 HarFok:  IExCor= 1009 AccDes= 0.00D+00 IRadAn=         4 IDoV= 1 UseB2=F ITyADJ=14
 ICtDFT=  3500011 ScaDFX=  1.000000  1.000000  1.000000  1.000000
 Defaulting to unpruned grid for atomic number  83.
 Defaulting to unpruned grid for atomic number  83.
 Defaulting to unpruned grid for atomic number  83.
 Defaulting to unpruned grid for atomic number  83.
 FoFCou: FMM=F IPFlag=           0 FMFlag=      100000 FMFlg1=           0
         NFxFlg=           0 DoJE=T BraDBF=F KetDBF=T FulRan=T
         wScrn=  0.000000 ICntrl=     500 IOpCl=  0 I1Cent=   200000004 NGrid=           0
         NMat0=    1 NMatS0=      1 NMatT0=    0 NMatD0=    1 NMtDS0=    0 NMtDT0=    0
 Petite list used in FoFCou.
 Harris En= -7518.61524572510    
 Leave Link  401 at Tue Mar  6 14:38:18 2018, MaxMem=   536870912 cpu:        11.3
 (Enter /share/apps//mg09/l502.exe)
 Closed shell SCF:
 Using DIIS extrapolation, IDIIS=  1040.
 Integral symmetry usage will be decided dynamically.
 IVT=     1410107 IEndB=     1410107 NGot=   536870912 MDV=   536322046
 LenX=   536322046 LenY=   536052166
 Requested convergence on RMS density matrix=1.00D-08 within 768 cycles.
 Requested convergence on MAX density matrix=1.00D-06.
 Requested convergence on             energy=1.00D-06.
 No special actions if energy rises.
 Fock matrices will be formed incrementally for  20 cycles.

 Cycle   1  Pass 1  IDiag  1:
 FoFJK:  IHMeth= 1 ICntrl=       0 DoSepK=F KAlg= 0 I1Cent=   0 FoldK=F
 IRaf= 880000000 NMat=   1 IRICut=       1 DoRegI=T DoRafI=F ISym2E= 0.
 FoFCou: FMM=F IPFlag=           0 FMFlag=      100000 FMFlg1=           0
         NFxFlg=           0 DoJE=F BraDBF=F KetDBF=F FulRan=T
         wScrn=  0.000000 ICntrl=       0 IOpCl=  0 I1Cent=           0 NGrid=           0
         NMat0=    1 NMatS0=      1 NMatT0=    0 NMatD0=    1 NMtDS0=    0 NMtDT0=    0
 Symmetry not used in FoFCou.
 Defaulting to unpruned grid for atomic number  83.
 Defaulting to unpruned grid for atomic number  83.
 Defaulting to unpruned grid for atomic number  83.
 Defaulting to unpruned grid for atomic number  83.
 E= -7517.81451287048    
 DIIS: error= 5.19D-03 at cycle   1 NSaved=   1.
 NSaved= 1 IEnMin= 1 EnMin= -7517.81451287048     IErMin= 1 ErrMin= 5.19D-03
 ErrMax= 5.19D-03  0.00D+00 EMaxC= 1.00D-01 BMatC= 8.60D-03 BMatP= 8.60D-03
 IDIUse=3 WtCom= 9.48D-01 WtEn= 5.19D-02
 Coeff-Com:  0.100D+01
 Coeff-En:   0.100D+01
 Coeff:      0.100D+01
 Gap=     7.945 Goal=   None    Shift=    0.000
 GapD=    7.945 DampG=2.000 DampE=1.000 DampFc=2.0000 IDamp=-1.
 RMSDP=1.76D-04 MaxDP=5.26D-03              OVMax= 2.24D-02

 Cycle   2  Pass 1  IDiag  1:
 RMSU=  1.76D-04    CP:  1.00D+00
 E= -7517.81455053696     Delta-E=       -0.000037666487 Rises=F Damp=F
 DIIS: error= 1.22D-03 at cycle   2 NSaved=   2.
 NSaved= 2 IEnMin= 2 EnMin= -7517.81455053696     IErMin= 2 ErrMin= 1.22D-03
 ErrMax= 1.22D-03  0.00D+00 EMaxC= 1.00D-01 BMatC= 1.53D-03 BMatP= 8.60D-03
 IDIUse=3 WtCom= 9.88D-01 WtEn= 1.22D-02
 Coeff-Com:  0.189D+00 0.811D+00
 Coeff-En:   0.489D+00 0.511D+00
 Coeff:      0.193D+00 0.807D+00
 Gap=     0.124 Goal=   None    Shift=    0.000
 RMSDP=2.11D-04 MaxDP=8.73D-03 DE=-3.77D-05 OVMax= 1.78D-02

 Cycle   3  Pass 1  IDiag  1:
 RMSU=  1.90D-04    CP:  9.99D-01  5.08D-01
 E= -7517.81252470112     Delta-E=        0.002025835838 Rises=F Damp=F
 DIIS: error= 1.82D-03 at cycle   3 NSaved=   3.
 NSaved= 3 IEnMin= 2 EnMin= -7517.81455053696     IErMin= 2 ErrMin= 1.22D-03
 ErrMax= 1.82D-03  0.00D+00 EMaxC= 1.00D-01 BMatC= 3.84D-03 BMatP= 1.53D-03
 IDIUse=3 WtCom= 1.90D-01 WtEn= 8.10D-01
 Coeff-Com:  0.678D-02 0.611D+00 0.382D+00
 Coeff-En:   0.000D+00 0.676D+00 0.324D+00
 Coeff:      0.129D-02 0.663D+00 0.335D+00
 Gap=     0.125 Goal=   None    Shift=    0.000
 RMSDP=1.20D-04 MaxDP=4.96D-03 DE= 2.03D-03 OVMax= 1.37D-02

 Cycle   4  Pass 1  IDiag  1:
 RMSU=  4.58D-05    CP:  9.99D-01  7.90D-01  4.83D-01
 E= -7517.81555083830     Delta-E=       -0.003026137179 Rises=F Damp=F
 DIIS: error= 3.95D-04 at cycle   4 NSaved=   4.
 NSaved= 4 IEnMin= 4 EnMin= -7517.81555083830     IErMin= 4 ErrMin= 3.95D-04
 ErrMax= 3.95D-04  0.00D+00 EMaxC= 1.00D-01 BMatC= 2.42D-04 BMatP= 1.53D-03
 IDIUse=3 WtCom= 9.96D-01 WtEn= 3.95D-03
 Coeff-Com:  0.149D-03 0.451D+00 0.240D+00 0.309D+00
 Coeff-En:   0.000D+00 0.117D+00 0.000D+00 0.883D+00
 Coeff:      0.149D-03 0.450D+00 0.239D+00 0.311D+00
 Gap=     0.125 Goal=   None    Shift=    0.000
 RMSDP=4.00D-05 MaxDP=1.49D-03 DE=-3.03D-03 OVMax= 4.28D-03

 Cycle   5  Pass 1  IDiag  1:
 RMSU=  1.41D-05    CP:  9.99D-01  8.47D-01  4.37D-01  2.41D-01
 E= -7517.81575855331     Delta-E=       -0.000207715009 Rises=F Damp=F
 DIIS: error= 8.71D-05 at cycle   5 NSaved=   5.
 NSaved= 5 IEnMin= 5 EnMin= -7517.81575855331     IErMin= 5 ErrMin= 8.71D-05
 ErrMax= 8.71D-05  0.00D+00 EMaxC= 1.00D-01 BMatC= 1.47D-05 BMatP= 2.42D-04
 IDIUse=1 WtCom= 1.00D+00 WtEn= 0.00D+00
 Coeff-Com: -0.894D-03 0.222D+00 0.107D+00 0.227D+00 0.444D+00
 Coeff:     -0.894D-03 0.222D+00 0.107D+00 0.227D+00 0.444D+00
 Gap=     0.125 Goal=   None    Shift=    0.000
 RMSDP=9.57D-06 MaxDP=4.34D-04 DE=-2.08D-04 OVMax= 1.09D-03

 Cycle   6  Pass 1  IDiag  1:
 RMSU=  3.78D-06    CP:  9.99D-01  8.57D-01  4.30D-01  3.83D-01  6.30D-01
 E= -7517.81577327274     Delta-E=       -0.000014719430 Rises=F Damp=F
 DIIS: error= 1.57D-05 at cycle   6 NSaved=   6.
 NSaved= 6 IEnMin= 6 EnMin= -7517.81577327274     IErMin= 6 ErrMin= 1.57D-05
 ErrMax= 1.57D-05  0.00D+00 EMaxC= 1.00D-01 BMatC= 3.93D-07 BMatP= 1.47D-05
 IDIUse=1 WtCom= 1.00D+00 WtEn= 0.00D+00
 Coeff-Com: -0.431D-03 0.803D-01 0.391D-01 0.915D-01 0.218D+00 0.572D+00
 Coeff:     -0.431D-03 0.803D-01 0.391D-01 0.915D-01 0.218D+00 0.572D+00
 Gap=     0.125 Goal=   None    Shift=    0.000
 RMSDP=2.89D-06 MaxDP=1.17D-04 DE=-1.47D-05 OVMax= 3.68D-04

 Cycle   7  Pass 1  IDiag  1:
 RMSU=  2.53D-06    CP:  9.99D-01  8.60D-01  4.33D-01  3.80D-01  6.85D-01
                    CP:  7.71D-01
 E= -7517.81577324280     Delta-E=        0.000000029941 Rises=F Damp=F
 DIIS: error= 1.70D-05 at cycle   7 NSaved=   7.
 NSaved= 7 IEnMin= 6 EnMin= -7517.81577327274     IErMin= 6 ErrMin= 1.57D-05
 ErrMax= 1.70D-05  0.00D+00 EMaxC= 1.00D-01 BMatC= 3.64D-07 BMatP= 3.93D-07
 IDIUse=1 WtCom= 1.00D+00 WtEn= 0.00D+00
 Coeff-Com: -0.138D-03 0.991D-02 0.577D-02 0.194D-01 0.713D-01 0.493D+00
 Coeff-Com:  0.401D+00
 Coeff:     -0.138D-03 0.991D-02 0.577D-02 0.194D-01 0.713D-01 0.493D+00
 Coeff:      0.401D+00
 Gap=     0.125 Goal=   None    Shift=    0.000
 RMSDP=2.10D-06 MaxDP=7.93D-05 DE= 2.99D-08 OVMax= 2.38D-04

 Cycle   8  Pass 1  IDiag  1:
 RMSU=  9.36D-07    CP:  9.99D-01  8.61D-01  4.35D-01  3.83D-01  7.00D-01
                    CP:  1.04D+00  4.02D-01
 E= -7517.81577364893     Delta-E=       -0.000000406133 Rises=F Damp=F
 DIIS: error= 6.22D-06 at cycle   8 NSaved=   8.
 NSaved= 8 IEnMin= 8 EnMin= -7517.81577364893     IErMin= 8 ErrMin= 6.22D-06
 ErrMax= 6.22D-06  0.00D+00 EMaxC= 1.00D-01 BMatC= 5.77D-08 BMatP= 3.64D-07
 IDIUse=1 WtCom= 1.00D+00 WtEn= 0.00D+00
 Coeff-Com:  0.567D-05-0.142D-01-0.580D-02-0.852D-02-0.176D-02 0.240D+00
 Coeff-Com:  0.317D+00 0.474D+00
 Coeff:      0.567D-05-0.142D-01-0.580D-02-0.852D-02-0.176D-02 0.240D+00
 Coeff:      0.317D+00 0.474D+00
 Gap=     0.125 Goal=   None    Shift=    0.000
 RMSDP=7.64D-07 MaxDP=3.81D-05 DE=-4.06D-07 OVMax= 7.82D-05

 Cycle   9  Pass 1  IDiag  1:
 RMSU=  2.75D-07    CP:  9.99D-01  8.62D-01  4.36D-01  3.85D-01  7.09D-01
                    CP:  1.05D+00  5.80D-01  4.88D-01
 E= -7517.81577371634     Delta-E=       -0.000000067406 Rises=F Damp=F
 DIIS: error= 1.40D-06 at cycle   9 NSaved=   9.
 NSaved= 9 IEnMin= 9 EnMin= -7517.81577371634     IErMin= 9 ErrMin= 1.40D-06
 ErrMax= 1.40D-06  0.00D+00 EMaxC= 1.00D-01 BMatC= 3.47D-09 BMatP= 5.77D-08
 IDIUse=1 WtCom= 1.00D+00 WtEn= 0.00D+00
 Coeff-Com:  0.196D-04-0.951D-02-0.396D-02-0.710D-02-0.990D-02 0.872D-01
 Coeff-Com:  0.143D+00 0.284D+00 0.516D+00
 Coeff:      0.196D-04-0.951D-02-0.396D-02-0.710D-02-0.990D-02 0.872D-01
 Coeff:      0.143D+00 0.284D+00 0.516D+00
 Gap=     0.125 Goal=   None    Shift=    0.000
 RMSDP=1.85D-07 MaxDP=1.13D-05 DE=-6.74D-08 OVMax= 2.81D-05

 Cycle  10  Pass 1  IDiag  1:
 RMSU=  9.85D-08    CP:  9.99D-01  8.62D-01  4.36D-01  3.86D-01  7.14D-01
                    CP:  1.06D+00  5.76D-01  5.88D-01  7.79D-01
 E= -7517.81577371937     Delta-E=       -0.000000003032 Rises=F Damp=F
 DIIS: error= 3.39D-07 at cycle  10 NSaved=  10.
 NSaved=10 IEnMin=10 EnMin= -7517.81577371937     IErMin=10 ErrMin= 3.39D-07
 ErrMax= 3.39D-07  0.00D+00 EMaxC= 1.00D-01 BMatC= 1.45D-10 BMatP= 3.47D-09
 IDIUse=1 WtCom= 1.00D+00 WtEn= 0.00D+00
 Coeff-Com:  0.652D-05-0.252D-02-0.101D-02-0.201D-02-0.375D-02 0.155D-01
 Coeff-Com:  0.299D-01 0.727D-01 0.210D+00 0.681D+00
 Coeff:      0.652D-05-0.252D-02-0.101D-02-0.201D-02-0.375D-02 0.155D-01
 Coeff:      0.299D-01 0.727D-01 0.210D+00 0.681D+00
 Gap=     0.125 Goal=   None    Shift=    0.000
 RMSDP=7.35D-08 MaxDP=2.91D-06 DE=-3.03D-09 OVMax= 9.41D-06

 Cycle  11  Pass 1  IDiag  1:
 RMSU=  6.18D-08    CP:  9.99D-01  8.62D-01  4.36D-01  3.86D-01  7.15D-01
                    CP:  1.06D+00  5.77D-01  5.92D-01  8.67D-01  8.59D-01
 E= -7517.81577371938     Delta-E=       -0.000000000007 Rises=F Damp=F
 DIIS: error= 4.73D-07 at cycle  11 NSaved=  11.
 NSaved=11 IEnMin=11 EnMin= -7517.81577371938     IErMin=10 ErrMin= 3.39D-07
 ErrMax= 4.73D-07  0.00D+00 EMaxC= 1.00D-01 BMatC= 2.50D-10 BMatP= 1.45D-10
 IDIUse=1 WtCom= 1.00D+00 WtEn= 0.00D+00
 Coeff-Com:  0.996D-06 0.128D-03 0.963D-04-0.144D-04-0.941D-03-0.851D-02
 Coeff-Com: -0.908D-02-0.566D-02 0.637D-01 0.614D+00 0.347D+00
 Coeff:      0.996D-06 0.128D-03 0.963D-04-0.144D-04-0.941D-03-0.851D-02
 Coeff:     -0.908D-02-0.566D-02 0.637D-01 0.614D+00 0.347D+00
 Gap=     0.125 Goal=   None    Shift=    0.000
 RMSDP=5.00D-08 MaxDP=2.18D-06 DE=-7.28D-12 OVMax= 5.79D-06

 Cycle  12  Pass 1  IDiag  1:
 RMSU=  1.75D-08    CP:  9.99D-01  8.62D-01  4.36D-01  3.86D-01  7.15D-01
                    CP:  1.06D+00  5.80D-01  5.93D-01  8.78D-01  1.07D+00
                    CP:  3.67D-01
 E= -7517.81577371980     Delta-E=       -0.000000000422 Rises=F Damp=F
 DIIS: error= 7.50D-08 at cycle  12 NSaved=  12.
 NSaved=12 IEnMin=12 EnMin= -7517.81577371980     IErMin=12 ErrMin= 7.50D-08
 ErrMax= 7.50D-08  0.00D+00 EMaxC= 1.00D-01 BMatC= 8.95D-12 BMatP= 1.45D-10
 IDIUse=1 WtCom= 1.00D+00 WtEn= 0.00D+00
 Coeff-Com: -0.504D-06 0.481D-03 0.217D-03 0.320D-03 0.807D-04-0.738D-02
 Coeff-Com: -0.973D-02-0.154D-01 0.210D-02 0.257D+00 0.210D+00 0.563D+00
 Coeff:     -0.504D-06 0.481D-03 0.217D-03 0.320D-03 0.807D-04-0.738D-02
 Coeff:     -0.973D-02-0.154D-01 0.210D-02 0.257D+00 0.210D+00 0.563D+00
 Gap=     0.125 Goal=   None    Shift=    0.000
 RMSDP=1.18D-08 MaxDP=5.41D-07 DE=-4.22D-10 OVMax= 1.92D-06

 Cycle  13  Pass 1  IDiag  1:
 RMSU=  5.55D-09    CP:  9.99D-01  8.62D-01  4.36D-01  3.87D-01  7.16D-01
                    CP:  1.06D+00  5.81D-01  5.96D-01  8.91D-01  1.09D+00
                    CP:  4.82D-01  7.37D-01
 E= -7517.81577371954     Delta-E=        0.000000000258 Rises=F Damp=F
 DIIS: error= 1.89D-08 at cycle  13 NSaved=  13.
 NSaved=13 IEnMin=12 EnMin= -7517.81577371980     IErMin=13 ErrMin= 1.89D-08
 ErrMax= 1.89D-08  0.00D+00 EMaxC= 1.00D-01 BMatC= 7.58D-13 BMatP= 8.95D-12
 IDIUse=1 WtCom= 1.00D+00 WtEn= 0.00D+00
 Coeff-Com: -0.331D-06 0.225D-03 0.985D-04 0.158D-03 0.142D-03-0.288D-02
 Coeff-Com: -0.396D-02-0.700D-02-0.557D-02 0.698D-01 0.626D-01 0.295D+00
 Coeff-Com:  0.591D+00
 Coeff:     -0.331D-06 0.225D-03 0.985D-04 0.158D-03 0.142D-03-0.288D-02
 Coeff:     -0.396D-02-0.700D-02-0.557D-02 0.698D-01 0.626D-01 0.295D+00
 Coeff:      0.591D+00
 Gap=     0.125 Goal=   None    Shift=    0.000
 RMSDP=3.32D-09 MaxDP=2.16D-07 DE= 2.58D-10 OVMax= 3.80D-07

 SCF Done:  E(RPBE1PBE) =  -7517.81577372     A.U. after   13 cycles
            NFock= 13  Conv=0.33D-08     -V/T= 2.1284
 KE= 6.662177519354D+03 PE=-2.476733580934D+04 EE= 6.999304731315D+03
 Leave Link  502 at Tue Mar  6 14:47:41 2018, MaxMem=   536870912 cpu:      2252.7
 (Enter /share/apps//mg09/l701.exe)
 Compute integral first derivatives.
 ... and contract with generalized density number  0.
   1 Symmetry operations used in ECPInt.
 ECPInt:  NShTT=   10440 NPrTT=   41973 LenC2=    9687 LenP2D=   27675.
 LDataN:  DoStor=T MaxTD1= 9 Len=  602
 Leave Link  701 at Tue Mar  6 14:47:59 2018, MaxMem=   536870912 cpu:        69.6
 (Enter /share/apps//mg09/l702.exe)
 L702 exits ... SP integral derivatives will be done elsewhere.
 Leave Link  702 at Tue Mar  6 14:47:59 2018, MaxMem=   536870912 cpu:         0.1
 (Enter /share/apps//mg09/l703.exe)
 Compute integral first derivatives, UseDBF=F ICtDFT=           0.
 Integral derivatives from FoFJK, PRISM(SPDF).
 Calling FoFJK, ICntrl=      2127 FMM=F ISym2X=0 I1Cent= 0 IOpClX= 0 NMat=1 NMatS=1 NMatT=0.
 FoFJK:  IHMeth= 1 ICntrl=    2127 DoSepK=F KAlg= 0 I1Cent=   0 FoldK=F
 IRaf=         0 NMat=   1 IRICut=       1 DoRegI=T DoRafI=F ISym2E= 0.
 FoFCou: FMM=F IPFlag=           0 FMFlag=      100000 FMFlg1=         800
         NFxFlg=           0 DoJE=F BraDBF=F KetDBF=F FulRan=T
         wScrn=  0.000000 ICntrl=    2127 IOpCl=  0 I1Cent=           0 NGrid=           0
         NMat0=    1 NMatS0=      1 NMatT0=    0 NMatD0=    1 NMtDS0=    0 NMtDT0=    0
 Symmetry not used in FoFCou.
 Defaulting to unpruned grid for atomic number  83.
 Defaulting to unpruned grid for atomic number  83.
 Defaulting to unpruned grid for atomic number  83.
 Defaulting to unpruned grid for atomic number  83.
 Leave Link  703 at Tue Mar  6 14:50:50 2018, MaxMem=   536870912 cpu:       680.3
 (Enter /share/apps//mg09/l716.exe)
 Dipole        = 4.03483846D-04-2.62706816D-01-4.17495229D-01
 ***** Axes restored to original set *****
 -------------------------------------------------------------------
 Center     Atomic                   Forces (Hartrees/Bohr)
 Number     Number              X              Y              Z
 -------------------------------------------------------------------
      1       32          -0.006689256    0.002646341   -0.004975006
      2       83           0.001769250   -0.000231702    0.000050077
      3       83          -0.001831402   -0.000712257    0.001133797
      4       50           0.007073791    0.000229096   -0.002391154
      5       83          -0.001898487    0.000406955    0.000473154
      6       83           0.001003544   -0.001175638    0.001152005
      7       32          -0.000886099    0.000299731    0.005692209
      8       50           0.000954974    0.005242390    0.002051871
      9       32           0.000503686   -0.006704915   -0.003186954
 -------------------------------------------------------------------
 Cartesian Forces:  Max     0.007073791 RMS     0.003159930
 Leave Link  716 at Tue Mar  6 14:50:50 2018, MaxMem=   536870912 cpu:         0.1
 (Enter /share/apps//mg09/l103.exe)

 GradGradGradGradGradGradGradGradGradGradGradGradGradGradGradGradGradGrad
 Berny optimization.
 Search for a local minimum.
 Step number   2 out of a maximum of  100
 All quantities printed in internal units (Hartrees-Bohrs-Radians)
 Update second derivatives using D2CorN and points    1    2
 DE= -5.58D-03 DEPred=-4.09D-03 R= 1.36D+00
 TightC=F SS=  1.41D+00  RLast= 2.19D-01 DXNew= 5.0454D-01 6.5552D-01
 Trust test= 1.36D+00 RLast= 2.19D-01 DXMaxT set to 5.05D-01
 ITU=  1  0
     Eigenvalues ---    0.07900   0.09663   0.11893   0.12493   0.12832
     Eigenvalues ---    0.13816   0.14679   0.15000   0.15850   0.16400
     Eigenvalues ---    0.17931   0.22685   0.23137   0.23566   0.24233
     Eigenvalues ---    0.24643   0.26599   0.28738   0.29443   0.30574
     Eigenvalues ---    0.31456
 RFO step:  Lambda=-3.72389789D-04 EMin= 7.89971510D-02
 Quartic linear search produced a step of  0.62094.
 TrRot= -0.000154  0.000114 -0.000085  1.322324 -0.000119 -1.322345
 Variable       Old X    -DE/DX   Delta X   Delta X   Delta X     New X
                                 (Linear)    (Quad)   (Total)
    X1        2.19371  -0.00669  -0.03452  -0.01225  -0.04707   2.14664
    Y1       -1.13083   0.00265   0.01353   0.00470   0.01784  -1.11300
    Z1        4.06866  -0.00498  -0.03236  -0.00826  -0.04077   4.02788
    X2       -3.80921   0.00177   0.03414  -0.00515   0.02886  -3.78035
    Y2       -1.61297  -0.00023   0.00890  -0.01293  -0.00359  -1.61655
    Z2       -2.13134   0.00005   0.01749  -0.01114   0.00597  -2.12537
    X3        3.54939  -0.00183  -0.02768   0.00753  -0.02024   3.52914
    Y3        2.80617  -0.00071  -0.02186   0.00925  -0.01255   2.79362
    Z3       -0.20516   0.00113   0.00601   0.00054   0.00689  -0.19827
    X4       -3.43127   0.00707   0.04409   0.00898   0.05279  -3.37848
    Y4       -0.37538   0.00023   0.00189   0.00112   0.00278  -0.37260
    Z4        3.59726  -0.00239  -0.02685  -0.00113  -0.02821   3.56905
[...]
     X                 X   X                     X           X                                                                       
     X                 X   X                     X           X                                                                       
     X                 X   X                     X           X                                                                       
     X                 X                         X                                                                                   
     X                 X                                                                                                             
     X                 X                                                                                                             
     X                 X                                                                                                             
     X                 X                                                                                                             
     X                 X                                                                                                             
     X                 X                                                                                                             
     X                 X                                                                                                             
     X                 X                                                                                                             
                       X                                                                                                             
                       X                                                                                                             
 
 ***** Axes restored to original set *****
 -------------------------------------------------------------------
 Center     Atomic                   Forces (Hartrees/Bohr)
 Number     Number              X              Y              Z
 -------------------------------------------------------------------
      1       32           0.000072187    0.000020343   -0.000016943
      2       83           0.000013342   -0.000011126    0.000020259
      3       83           0.000007418   -0.000024752   -0.000009231
      4       50          -0.000008759    0.000007674    0.000009941
      5       83          -0.000018929   -0.000005964   -0.000013585
      6       83          -0.000014882    0.000009169   -0.000018462
      7       32          -0.000036652   -0.000021252    0.000024545
      8       50          -0.000013740    0.000008432    0.000034400
      9       32           0.000000014    0.000017476   -0.000030924
 -------------------------------------------------------------------
 Cartesian Forces:  Max     0.000072187 RMS     0.000022721
 Force constants in Cartesian coordinates: 
                1             2             3             4             5 
      1  0.464424D-01
      2 -0.850280D-02  0.587113D-01
      3  0.111591D-01  0.605305D-02  0.560033D-01
      4 -0.397339D-02  0.366389D-03  0.430335D-03  0.577806D-01
      5  0.522026D-02 -0.472855D-03  0.605963D-04  0.202696D-01  0.670333D-01
      6 -0.340407D-02 -0.240603D-02 -0.444645D-02  0.124632D-01  0.279677D-02
      7 -0.131966D-02 -0.200318D-02 -0.507885D-03 -0.466481D-02 -0.272174D-02
      8 -0.423166D-02 -0.500460D-02  0.611270D-02  0.133506D-02 -0.335564D-02
      9  0.413291D-03  0.449559D-02 -0.692488D-02 -0.336212D-02 -0.319687D-02
     10 -0.227144D-01  0.382111D-02  0.109483D-02 -0.290745D-02 -0.347002D-02
     11  0.418848D-02  0.181614D-02 -0.326807D-03 -0.226603D-02  0.133292D-02
     12 -0.483425D-02  0.756034D-03 -0.319038D-02 -0.108225D-02 -0.641423D-02
     13 -0.329888D-02  0.449617D-02  0.501712D-02 -0.603294D-02  0.375305D-02
     14  0.718252D-02 -0.192520D-02 -0.610987D-02 -0.346263D-02 -0.394018D-03
     15  0.728367D-02 -0.487614D-02 -0.216065D-01 -0.262426D-02  0.351807D-02
     16 -0.601746D-02  0.328446D-02 -0.376382D-03 -0.341504D-02 -0.114248D-01
     17 -0.687757D-03 -0.119230D-02  0.177487D-02 -0.109458D-01 -0.466338D-01
     18 -0.354627D-02  0.675012D-02 -0.557648D-02 -0.424297D-02 -0.573982D-02
     19  0.101184D-02 -0.226138D-02 -0.627666D-02 -0.272987D-01 -0.137759D-01
     20 -0.316807D-02 -0.279219D-02  0.331162D-02 -0.128637D-01 -0.514805D-02
     21  0.138190D-02 -0.112210D-03 -0.630121D-02  0.100965D-01  0.335829D-02
     22 -0.686489D-02 -0.116756D-01 -0.998047D-02 -0.877662D-02  0.816191D-02
     23 -0.942413D-02 -0.169369D-01 -0.662759D-02  0.783887D-02 -0.119075D-01
     24 -0.773050D-02 -0.118479D-01 -0.601216D-02 -0.128087D-01  0.841087D-02
     25 -0.326552D-02  0.124748D-01 -0.559969D-03 -0.711566D-03 -0.601240D-02
     26  0.942316D-02 -0.322034D-01 -0.424856D-02 -0.271815D-03 -0.454368D-03
     27 -0.722869D-03  0.118750D-02 -0.194519D-02  0.113036D-02 -0.279369D-02
                6             7             8             9            10 
      6  0.580277D-01
      7  0.565672D-03  0.711370D-01
      8 -0.131295D-03  0.140554D-01  0.759381D-01
      9  0.200113D-02 -0.122438D-01  0.110674D-01  0.477105D-01
     10 -0.217379D-02 -0.654923D-02  0.242623D-02  0.341615D-02  0.587308D-01
     11 -0.488205D-02 -0.236718D-02 -0.969789D-03  0.400253D-02  0.611067D-02
     12 -0.250850D-01  0.614935D-03  0.142899D-02 -0.390208D-02 -0.131226D-01
     13  0.141594D-02 -0.240388D-02  0.260063D-04  0.286175D-02 -0.489083D-02
     14  0.160343D-02 -0.568404D-03 -0.533536D-01 -0.450051D-02 -0.351833D-02
     15 -0.293445D-03  0.379800D-02 -0.839970D-02 -0.590294D-03  0.144129D-02
     16 -0.625208D-02 -0.284112D-01  0.313410D-02 -0.555088D-02 -0.104645D-02
     17 -0.844305D-02  0.432341D-02 -0.437734D-02 -0.262026D-03  0.227243D-03
     18 -0.348243D-02 -0.310712D-02 -0.506423D-03  0.375294D-02  0.294123D-02
     19  0.128367D-01 -0.105241D-01 -0.878238D-02 -0.624469D-02  0.651805D-03
     20  0.351303D-02 -0.111164D-01 -0.211710D-03 -0.913682D-02  0.114700D-02
     21 -0.104997D-01 -0.766096D-02 -0.685596D-02 -0.151684D-01 -0.122708D-03
     22 -0.134299D-01  0.710823D-03 -0.789299D-02 -0.115409D-02 -0.696025D-02
     23  0.905311D-02  0.507790D-03 -0.537571D-02  0.150070D-02  0.105940D-01
     24 -0.140769D-01 -0.298576D-02  0.287455D-02 -0.144320D-02  0.645681D-02
     25 -0.202158D-02 -0.179748D-01 -0.697960D-04  0.218644D-01 -0.143140D-01
     26 -0.110392D-02 -0.109705D-03 -0.328970D-02 -0.397001D-02 -0.173379D-01
     27 -0.214501D-02  0.215270D-01 -0.559028D-02 -0.254357D-01  0.688063D-04
               11            12            13            14            15 
     11  0.510547D-01
     12  0.976603D-02  0.497708D-01
     13  0.109533D-02 -0.451571D-03  0.587105D-01
     14 -0.394750D-04 -0.628691D-03 -0.126587D-01  0.828104D-01
     15 -0.247679D-02 -0.367623D-02 -0.153641D-01 -0.343043D-03  0.507062D-01
     16 -0.226892D-03  0.380145D-02 -0.404651D-02  0.362667D-02 -0.285884D-02
     17 -0.689734D-02  0.803747D-02 -0.737775D-03 -0.413688D-02  0.400863D-03
     18  0.697044D-02 -0.794755D-02  0.888000D-03 -0.259847D-02  0.262669D-02
     19  0.495000D-03  0.747438D-02 -0.117526D-01  0.146889D-01 -0.113505D-01
     20 -0.365435D-02  0.922989D-03  0.131765D-01 -0.133709D-01  0.995605D-02
     21  0.320155D-03 -0.354319D-02 -0.917072D-02  0.100456D-01 -0.167074D-01
     22  0.136087D-01  0.896480D-02 -0.267975D-01 -0.111224D-01  0.175516D-01
     23 -0.229360D-01 -0.850084D-02 -0.965150D-02 -0.694002D-02  0.406564D-02
     24 -0.112872D-01 -0.216268D-02  0.163143D-01  0.442738D-02 -0.795470D-02
     25 -0.206381D-01 -0.136488D-02  0.512576D-03  0.583245D-02  0.212322D-02
     26 -0.197069D-01 -0.536776D-02  0.500953D-03 -0.265033D-02 -0.184495D-02
     27 -0.208632D-02 -0.263718D-03 -0.151067D-02 -0.189581D-02 -0.250435D-02
               16            17            18            19            20 
     16  0.541258D-01
     17 -0.111118D-01  0.827043D-01
     18  0.127618D-01  0.134972D-02  0.488210D-01
     19 -0.712860D-02  0.114191D-01  0.475425D-02  0.569928D-01
     20  0.142838D-01 -0.739841D-02 -0.743238D-02 -0.221629D-02  0.318889D-01
     21  0.718066D-02 -0.601459D-02 -0.120491D-01 -0.233212D-02 -0.147191D-02
     22  0.134726D-02  0.522875D-02  0.217340D-02 -0.124967D-02 -0.355366D-03
     23 -0.278178D-02 -0.597063D-02  0.145938D-03  0.129595D-03  0.257880D-03
     24  0.459737D-02  0.317422D-02 -0.730080D-04  0.108959D-02  0.478057D-02
     25 -0.540778D-02  0.228464D-02 -0.126224D-01 -0.702715D-03  0.111251D-02
     26  0.121622D-02 -0.609763D-02  0.106089D-02  0.303383D-03  0.428810D-03
     27 -0.133031D-01 -0.174718D-04 -0.260720D-01  0.490714D-04 -0.444315D-02
               21            22            23            24            25 
     21  0.698016D-01
     22 -0.142025D-03  0.549615D-01
     23 -0.107655D-02  0.270911D-02  0.726336D-01
     24 -0.171249D-02 -0.367889D-02  0.477434D-03  0.361112D-01
     25  0.769484D-03 -0.637066D-02  0.780696D-04 -0.125415D-02  0.482345D-01
     26  0.180718D-02  0.133791D-02 -0.282480D-02 -0.100992D-02  0.493776D-02
     27 -0.382015D-02 -0.304347D-03  0.962166D-03 -0.267615D-02 -0.693418D-02
               26            27 
     26  0.667983D-01
     27  0.146770D-01  0.648623D-01
 Leave Link  716 at Tue Mar  6 17:34:07 2018, MaxMem=   536870912 cpu:         0.1
 (Enter /share/apps//mg09/l103.exe)

 GradGradGradGradGradGradGradGradGradGradGradGradGradGradGradGradGradGrad
 Berny optimization.
 Search for a local minimum.
 Step number   1 out of a maximum of    2
 All quantities printed in internal units (Hartrees-Bohrs-Radians)
 Second derivative matrix not updated -- analytic derivatives used.
 ITU=  0
     Eigenvalues ---    0.00632   0.01572   0.03085   0.03741   0.04332
     Eigenvalues ---    0.04797   0.05256   0.05615   0.05830   0.06012
     Eigenvalues ---    0.06887   0.07028   0.07919   0.08959   0.09624
     Eigenvalues ---    0.10751   0.11379   0.11678   0.13329   0.14308
     Eigenvalues ---    0.14866
 Angle between quadratic step and forces=  60.58 degrees.
 Linear search not attempted -- first point.
 TrRot=  0.000014  0.000074 -0.000033  0.000007  0.000006  0.000007
 Variable       Old X    -DE/DX   Delta X   Delta X   Delta X     New X
                                 (Linear)    (Quad)   (Total)
    X1        2.11472   0.00007   0.00000   0.00191   0.00197   2.11669
    Y1       -1.10547   0.00002   0.00000   0.00102   0.00113  -1.10434
    Z1        4.00248  -0.00002   0.00000  -0.00094  -0.00098   4.00150
    X2       -3.76835   0.00001   0.00000   0.00177   0.00180  -3.76655
    Y2       -1.64142  -0.00001   0.00000  -0.00094  -0.00092  -1.64234
    Z2       -2.14539   0.00002   0.00000  -0.00028  -0.00029  -2.14568
    X3        3.55319   0.00001   0.00000   0.00094   0.00091   3.55410
    Y3        2.79517  -0.00002   0.00000  -0.00166  -0.00154   2.79363
    Z3       -0.20330  -0.00001   0.00000   0.00171   0.00166  -0.20164
    X4       -3.37628  -0.00001   0.00000  -0.00039  -0.00035  -3.37663
    Y4       -0.35114   0.00001   0.00000  -0.00004  -0.00002  -0.35116
    Z4        3.54970   0.00001   0.00000  -0.00023  -0.00024   3.54947
    X5        3.77704  -0.00002   0.00000  -0.00209  -0.00204   3.77500
    Y5       -2.72301  -0.00001   0.00000  -0.00119  -0.00106  -2.72406
    Z5       -1.05376  -0.00001   0.00000  -0.00144  -0.00149  -1.05525
    X6       -2.25098  -0.00001   0.00000  -0.00054  -0.00059  -2.25157
    Y6        3.63966   0.00001   0.00000  -0.00017  -0.00013   3.63953
    Z6       -0.98363  -0.00002   0.00000  -0.00041  -0.00043  -0.98406
    X7        0.73513  -0.00004   0.00000   0.00011   0.00009   0.73523
    Y7        0.31773  -0.00002   0.00000   0.00247   0.00256   0.32029
    Z7       -4.32480   0.00002   0.00000  -0.00004  -0.00008  -4.32488
    X8       -0.74994  -0.00001   0.00000  -0.00059  -0.00050  -0.75044
    Y8       -4.85853   0.00001   0.00000  -0.00034  -0.00028  -4.85881
    Z8        1.53457   0.00003   0.00000   0.00233   0.00230   1.53687
    X9        0.22909   0.00000   0.00000  -0.00127  -0.00129   0.22780
    Y9        3.48615   0.00002   0.00000   0.00019   0.00026   3.48641
    Z9        3.86727  -0.00003   0.00000  -0.00041  -0.00045   3.86682
         Item               Value     Threshold  Converged?
 Maximum Force            0.000072     0.000450     YES
 RMS     Force            0.000023     0.000300     YES
 Maximum Displacement     0.002557     0.001800     NO 
 RMS     Displacement     0.001196     0.001200     YES
 Predicted change in Energy=-1.828285D-07
 GradGradGradGradGradGradGradGradGradGradGradGradGradGradGradGradGradGrad

 Leave Link  103 at Tue Mar  6 17:34:07 2018, MaxMem=   536870912 cpu:         0.1
 (Enter /share/apps//mg09/l9999.exe)
 1\1\GINC-COMPUTE-0-4\Freq\RPBE1PBE\def2TZVP\Bi4Ge3Sn2\RODRIGO\06-Mar-2
 018\0\\#P Geom=AllCheck Guess=TCheck SCRF=Check GenChk RPBE1PBE/def2TZ
 VP Freq\\01Final_coords.xyz_35\\0,1\Ge,1.1190641609,-0.5849904404,2.11
 80231787\Bi,-1.9941252864,-0.8685997822,-1.1352897217\Bi,1.8802672311,
 1.4791377511,-0.1075800589\Sn,-1.786651003,-0.185815689,1.8784229042\B
 i,1.9987248381,-1.4409533051,-0.5576246555\Bi,-1.1911698492,1.92602292
 92,-0.5205168893\Ge,0.3890166642,0.1681376137,-2.2885850474\Sn,-0.3968
 531466,-2.5710231621,0.8120602335\Ge,0.1212303909,1.8447890847,2.04647
 00564\\Version=ES64L-G09RevD.01\State=1-A\HF=-7517.8173027\RMSD=9.671e
 -10\RMSF=2.272e-05\ZeroPoint=0.0058174\Thermal=0.0232901\Dipole=-0.001
 1066,0.2585872,-0.45149\DipoleDeriv=-0.0143898,0.0537412,0.0933111,0.0
 385259,-0.1160261,-0.0681983,-0.0022049,-0.0453972,-0.0144548,0.013853
 9,0.0152479,0.1350664,-0.0438425,-0.1426144,0.0665393,0.0376849,0.0381
 446,-0.1413549,0.1114049,-0.0280808,0.0081415,-0.0357739,0.0752512,-0.
 0243817,0.0376651,0.0192473,0.0093377,0.1688588,-0.0339498,-0.2245794,
 -0.0321775,0.00494,-0.0295483,-0.1028649,-0.0467867,0.1604331,0.053551
 ,-0.0646606,-0.0348582,-0.0319889,-0.1237081,0.0786805,0.0449805,0.009
 623,-0.1410962,0.106372,0.0077183,0.0265862,0.0232626,0.0587205,-0.029
 1805,-0.0068455,0.013831,-0.0075842,-0.1435534,0.0110917,-0.029931,0.0
 266809,-0.0693373,-0.0662331,-0.0477218,-0.0397319,0.0904618,-0.108474
 9,0.0614535,-0.0003209,0.032692,0.290391,-0.1078363,-0.0141033,-0.1142
 262,0.0300376,-0.1876225,-0.0225615,0.0265844,0.0226213,0.0223832,0.18
 01585,0.0534099,0.1652961,0.0142198\Polar=379.7368465,2.7542536,386.70
 05205,-7.2347933,-0.7205115,365.1001342\PG=C01 [X(Bi4Ge3Sn2)]\NImag=0\
 \0.04644236,-0.00850280,0.05871126,0.01115909,0.00605305,0.05600326,-0
 .00397339,0.00036639,0.00043034,0.05778057,0.00522026,-0.00047286,0.00
 006060,0.02026962,0.06703332,-0.00340407,-0.00240603,-0.00444645,0.012
 46316,0.00279677,0.05802768,-0.00131966,-0.00200318,-0.00050788,-0.004
 66481,-0.00272174,0.00056567,0.07113696,-0.00423166,-0.00500460,0.0061
 1270,0.00133506,-0.00335564,-0.00013130,0.01405542,0.07593811,0.000413
 29,0.00449559,-0.00692488,-0.00336212,-0.00319687,0.00200113,-0.012243
 84,0.01106742,0.04771051,-0.02271440,0.00382111,0.00109483,-0.00290745
 ,-0.00347002,-0.00217379,-0.00654923,0.00242623,0.00341615,0.05873083,
 0.00418848,0.00181614,-0.00032681,-0.00226603,0.00133292,-0.00488205,-
 0.00236718,-0.00096979,0.00400253,0.00611067,0.05105472,-0.00483425,0.
 00075603,-0.00319038,-0.00108225,-0.00641423,-0.02508497,0.00061494,0.
 00142899,-0.00390208,-0.01312263,0.00976603,0.04977080,-0.00329888,0.0
 0449617,0.00501712,-0.00603294,0.00375305,0.00141594,-0.00240388,0.000
 02601,0.00286175,-0.00489083,0.00109533,-0.00045157,0.05871050,0.00718
 252,-0.00192520,-0.00610987,-0.00346263,-0.00039402,0.00160343,-0.0005
 6840,-0.05335361,-0.00450051,-0.00351833,-0.00003948,-0.00062869,-0.01
 265872,0.08281039,0.00728367,-0.00487614,-0.02160651,-0.00262426,0.003
 51807,-0.00029345,0.00379800,-0.00839970,-0.00059029,0.00144129,-0.002
 47679,-0.00367623,-0.01536413,-0.00034304,0.05070621,-0.00601746,0.003
 28446,-0.00037638,-0.00341504,-0.01142482,-0.00625208,-0.02841124,0.00
 313410,-0.00555088,-0.00104645,-0.00022689,0.00380145,-0.00404651,0.00
 362667,-0.00285884,0.05412582,-0.00068776,-0.00119230,0.00177487,-0.01
 094575,-0.04663379,-0.00844305,0.00432341,-0.00437734,-0.00026203,0.00
 022724,-0.00689734,0.00803747,-0.00073777,-0.00413688,0.00040086,-0.01
 111181,0.08270432,-0.00354627,0.00675012,-0.00557648,-0.00424297,-0.00
 573982,-0.00348243,-0.00310712,-0.00050642,0.00375294,0.00294123,0.006
 97044,-0.00794755,0.00088800,-0.00259847,0.00262669,0.01276184,0.00134
 972,0.04882095,0.00101184,-0.00226138,-0.00627666,-0.02729875,-0.01377
 585,0.01283668,-0.01052411,-0.00878238,-0.00624469,0.00065181,0.000495
 00,0.00747438,-0.01175256,0.01468887,-0.01135051,-0.00712860,0.0114190
 6,0.00475425,0.05699276,-0.00316807,-0.00279219,0.00331162,-0.01286372
 ,-0.00514805,0.00351303,-0.01111640,-0.00021171,-0.00913682,0.00114700
 ,-0.00365435,0.00092299,0.01317648,-0.01337085,0.00995605,0.01428385,-
 0.00739841,-0.00743238,-0.00221629,0.03188888,0.00138190,-0.00011221,-
 0.00630121,0.01009648,0.00335829,-0.01049966,-0.00766096,-0.00685596,-
 0.01516840,-0.00012271,0.00032016,-0.00354319,-0.00917072,0.01004558,-
 0.01670737,0.00718066,-0.00601459,-0.01204909,-0.00233212,-0.00147191,
 0.06980156,-0.00686489,-0.01167559,-0.00998047,-0.00877662,0.00816191,
 -0.01342993,0.00071082,-0.00789299,-0.00115409,-0.00696025,0.01360869,
 0.00896480,-0.02679748,-0.01112243,0.01755155,0.00134726,0.00522875,0.
 00217340,-0.00124967,-0.00035537,-0.00014202,0.05496150,-0.00942413,-0
 .01693687,-0.00662759,0.00783887,-0.01190752,0.00905311,0.00050779,-0.
 00537571,0.00150070,0.01059397,-0.02293595,-0.00850084,-0.00965150,-0.
 00694002,0.00406564,-0.00278178,-0.00597063,0.00014594,0.00012959,0.00
 025788,-0.00107655,0.00270911,0.07263363,-0.00773050,-0.01184791,-0.00
 601216,-0.01280874,0.00841087,-0.01407686,-0.00298576,0.00287455,-0.00
 144320,0.00645681,-0.01128719,-0.00216268,0.01631427,0.00442738,-0.007
 95470,0.00459737,0.00317422,-0.00007301,0.00108959,0.00478057,-0.00171
 249,-0.00367889,0.00047743,0.03611124,-0.00326552,0.01247483,-0.000559
 97,-0.00071157,-0.00601240,-0.00202158,-0.01797484,-0.00006980,0.02186
 441,-0.01431402,-0.02063806,-0.00136488,0.00051258,0.00583245,0.002123
 22,-0.00540778,0.00228464,-0.01262236,-0.00070271,0.00111251,0.0007694
 8,-0.00637066,0.00007807,-0.00125415,0.04823452,0.00942316,-0.03220338
 ,-0.00424856,-0.00027181,-0.00045437,-0.00110392,-0.00010971,-0.003289
 70,-0.00397001,-0.01733787,-0.01970688,-0.00536776,0.00050095,-0.00265
 033,-0.00184495,0.00121622,-0.00609763,0.00106089,0.00030338,0.0004288
 1,0.00180718,0.00133791,-0.00282480,-0.00100992,0.00493776,0.06679829,
 -0.00072287,0.00118750,-0.00194519,0.00113036,-0.00279369,-0.00214501,
 0.02152696,-0.00559028,-0.02543574,0.00006881,-0.00208632,-0.00026372,
 -0.00151067,-0.00189581,-0.00250435,-0.01330313,-0.00001747,-0.0260720
 2,0.00004907,-0.00444315,-0.00382015,-0.00030435,0.00096217,-0.0026761
 5,-0.00693418,0.01467704,0.06486233\\-0.00007219,-0.00002034,0.0000169
 4,-0.00001334,0.00001113,-0.00002026,-0.00000742,0.00002475,0.00000923
 ,0.00000876,-0.00000767,-0.00000994,0.00001893,0.00000596,0.00001358,0
 .00001488,-0.00000917,0.00001846,0.00003665,0.00002125,-0.00002454,0.0
 0001374,-0.00000843,-0.00003440,-0.00000001,-0.00001748,0.00003092\\\@


 GARLIC THEN HAVE POWER TO SAVE FROM DEATH
 BEAR WITH IT THOUGH IT MAKETH UNSAVORY BREATH,
 AND SCORN NOT GARLIC LIKE SOME THAT THINK
 IT ONLY MAKETH MEN WINK AND DRINK AND STINK.
   --  SIR JOHN HARRINGTON,
       "THE ENGLISHMAN'S DOCTOR", 1609
 Job cpu time:       0 days  3 hours 57 minutes 38.6 seconds.
 File lengths (MBytes):  RWF=    299 Int=      0 D2E=      0 Chk=     16 Scr=      1
 Normal termination of Gaussian 09 at Tue Mar  6 17:34:09 2018.
