 Entering Gaussian System, Link 0=/share/apps/mg09/g09
 Initial command:
 /share/apps//mg09/l1.exe "/state/partition1/gauss_tmp/Gau-30781.inp" -scrdir="/state/partition1/gauss_tmp/"
 Entering Link 1 = /share/apps//mg09/l1.exe PID=     30795.
  
 Copyright (c) 1988,1990,1992,1993,1995,1998,2003,2009,2013,
            Gaussian, Inc.  All Rights Reserved.
  
 This is part of the Gaussian(R) 09 program.  It is based on
 the Gaussian(R) 03 system (copyright 2003, Gaussian, Inc.),
 the Gaussian(R) 98 system (copyright 1998, Gaussian, Inc.),
 the Gaussian(R) 94 system (copyright 1995, Gaussian, Inc.),
 the Gaussian 92(TM) system (copyright 1992, Gaussian, Inc.),
 the Gaussian 90(TM) system (copyright 1990, Gaussian, Inc.),
 the Gaussian 88(TM) system (copyright 1988, Gaussian, Inc.),
 the Gaussian 86(TM) system (copyright 1986, Carnegie Mellon
 University), and the Gaussian 82(TM) system (copyright 1983,
 Carnegie Mellon University). Gaussian is a federally registered
 trademark of Gaussian, Inc.
  
 This software contains proprietary and confidential information,
 including trade secrets, belonging to Gaussian, Inc.
  
 This software is provided under written license and may be
 used, copied, transmitted, or stored only in accord with that
 written license.
  
 The following legend is applicable only to US Government
 contracts under FAR:
  
                    RESTRICTED RIGHTS LEGEND
  
 Use, reproduction and disclosure by the US Government is
 subject to restrictions as set forth in subparagraphs (a)
 and (c) of the Commercial Computer Software - Restricted
 Rights clause in FAR 52.227-19.
  
 Gaussian, Inc.
 340 Quinnipiac St., Bldg. 40, Wallingford CT 06492
  
  
 ---------------------------------------------------------------
 Warning -- This program may not be used in any manner that
 competes with the business of Gaussian, Inc. or will provide
 assistance to any competitor of Gaussian, Inc.  The licensee
 of this program is prohibited from giving any competitor of
 Gaussian, Inc. access to this program.  By using this program,
 the user acknowledges that Gaussian, Inc. is engaged in the
 business of creating and licensing software in the field of
 computational chemistry and represents and warrants to the
 licensee that it is not a competitor of Gaussian, Inc. and that
 it will not use this program in any manner prohibited above.
 ---------------------------------------------------------------
  

 Cite this work as:
 Gaussian 09, Revision D.01,
 M. J. Frisch, G. W. Trucks, H. B. Schlegel, G. E. Scuseria, 
 M. A. Robb, J. R. Cheeseman, G. Scalmani, V. Barone, B. Mennucci, 
 G. A. Petersson, H. Nakatsuji, M. Caricato, X. Li, H. P. Hratchian, 
 A. F. Izmaylov, J. Bloino, G. Zheng, J. L. Sonnenberg, M. Hada, 
 M. Ehara, K. Toyota, R. Fukuda, J. Hasegawa, M. Ishida, T. Nakajima, 
 Y. Honda, O. Kitao, H. Nakai, T. Vreven, J. A. Montgomery, Jr., 
 J. E. Peralta, F. Ogliaro, M. Bearpark, J. J. Heyd, E. Brothers, 
 K. N. Kudin, V. N. Staroverov, T. Keith, R. Kobayashi, J. Normand, 
 K. Raghavachari, A. Rendell, J. C. Burant, S. S. Iyengar, J. Tomasi, 
 M. Cossi, N. Rega, J. M. Millam, M. Klene, J. E. Knox, J. B. Cross, 
 V. Bakken, C. Adamo, J. Jaramillo, R. Gomperts, R. E. Stratmann, 
 O. Yazyev, A. J. Austin, R. Cammi, C. Pomelli, J. W. Ochterski, 
 R. L. Martin, K. Morokuma, V. G. Zakrzewski, G. A. Voth, 
 P. Salvador, J. J. Dannenberg, S. Dapprich, A. D. Daniels, 
 O. Farkas, J. B. Foresman, J. V. Ortiz, J. Cioslowski, 
 and D. J. Fox, Gaussian, Inc., Wallingford CT, 2013.
 
 ******************************************
 Gaussian 09:  ES64L-G09RevD.01 24-Apr-2013
                 6-Mar-2018 
 ******************************************
 %NProcShared=4
 Will use up to    4 processors via shared memory.
 %LindaWorkers=compute-0-0
 %chk=Isomer_26.chk
 %NProc=4
 Will use up to    4 processors via shared memory.
 %mem=4GB
 SetLPE:  input flags=" -vv -opt "Tsnet.Node.lindarsharg: ssh" "
 SetLPE:    new flags=" -vv -opt "Tsnet.Node.lindarsharg: ssh"  -nodelist 'compute-0-0.local'"
 Will use up to    1 processors via Linda.
 ----------------------------------------------------------------------
 #p PBE1PBE/Def2TZVP scf=(maxcycle=768) opt=(cartesian,maxcycle=512) fr
 eq
 ----------------------------------------------------------------------
 1/6=512,10=7,14=-1,18=10,26=3,38=1/1,3;
 2/12=2,17=6,18=5,29=2,40=1/2;
 3/5=44,7=101,11=2,16=1,25=1,30=1,71=1,74=-13/1,2,3;
 4//1;
 5/5=2,7=768,38=5/2;
 6/7=2,8=2,9=2,10=2,28=1/1;
 7/7=1,29=1/1,2,3,16;
 1/6=512,10=7,14=-1,18=10,26=3/3(2);
 2/29=1/2;
 99/12=1/99;
 2/29=1/2;
 3/5=44,7=101,11=2,16=1,25=1,30=1,71=1,74=-13/1,2,3;
 4/5=5,16=3,69=1/1;
 5/5=2,7=768,38=5/2;
 7/7=1/1,2,3,16;
 1/6=512,14=-1,18=10,26=3/3(-5);
 2/29=1/2;
 6/7=2,8=2,9=2,10=2,19=2,28=1/1;
 99/9=1,12=1/99;
 Leave Link    1 at Tue Mar  6 11:56:29 2018, MaxMem=   536870912 cpu:         0.6
 (Enter /share/apps//mg09/l101.exe)
 ---------------------
 01Final_coords.xyz_26
 ---------------------
 Symbolic Z-matrix:
 Charge =  0 Multiplicity = 1
 50                   -1.88856   2.13698  -1.2952 
 50                   -0.13182  -0.80926   2.46542 
 83                   -2.37461  -0.30149   0.43222 
 32                   -0.68158   2.03088   1.386 
 83                   -0.22629  -2.36634  -0.21791 
 83                    1.9788   -0.62148  -1.34295 
 83                    2.00696   1.01103   1.2589 
 32                   -0.70349  -0.29685  -2.34582 
 32                    0.94996   2.10071  -1.20652 
 
 NAtoms=      9 NQM=        9 NQMF=       0 NMMI=      0 NMMIF=      0
                NMic=       0 NMicF=      0.
                    Isotopes and Nuclear Properties:
 (Nuclear quadrupole moments (NQMom) in fm**2, nuclear magnetic moments (NMagM)
  in nuclear magnetons)

  Atom         1           2           3           4           5           6           7           8           9
 IAtWgt=         118         118         209          74         209         209         209          74          74
 AtmWgt= 117.9018000 117.9018000 208.9804000  73.9211788 208.9804000 208.9804000 208.9804000  73.9211788  73.9211788
 NucSpn=           0           0           9           0           9           9           9           0           0
 AtZEff=   0.0000000   0.0000000   0.0000000   0.0000000   0.0000000   0.0000000   0.0000000   0.0000000   0.0000000
 NQMom=    0.0000000   0.0000000 -51.6000000   0.0000000 -51.6000000 -51.6000000 -51.6000000   0.0000000   0.0000000
 NMagM=    0.0000000   0.0000000   4.1106000   0.0000000   4.1106000   4.1106000   4.1106000   0.0000000   0.0000000
 AtZNuc=  50.0000000  50.0000000  83.0000000  32.0000000  83.0000000  83.0000000  83.0000000  32.0000000  32.0000000
 Leave Link  101 at Tue Mar  6 11:56:38 2018, MaxMem=   536870912 cpu:         0.6
 (Enter /share/apps//mg09/l103.exe)

 GradGradGradGradGradGradGradGradGradGradGradGradGradGradGradGradGradGrad
 Berny optimization.
 Initialization pass.
 No Z-matrix variables, so optimization will use Cartesian coordinates.
 Trust Radius=3.00D-01 FncErr=1.00D-07 GrdErr=1.00D-06
 Number of steps in this run=    100 maximum allowed number of steps=    100.
 GradGradGradGradGradGradGradGradGradGradGradGradGradGradGradGradGradGrad

 Leave Link  103 at Tue Mar  6 11:56:54 2018, MaxMem=   536870912 cpu:         0.1
 (Enter /share/apps//mg09/l202.exe)
 ---------------------------------------------------------------------------------------------------
                            Z-MATRIX (ANGSTROMS AND DEGREES)
   CD    Cent   Atom    N1       Length/X        N2       Alpha/Y        N3        Beta/Z          J
 ---------------------------------------------------------------------------------------------------
      1      1  Sn       0  -1.888556          2.136976         -1.295202
      2      2  Sn       0  -0.131823         -0.809260          2.465422
      3      3  Bi       0  -2.374612         -0.301489          0.432221
      4      4  Ge       0  -0.681582          2.030883          1.385995
      5      5  Bi       0  -0.226293         -2.366342         -0.217910
      6      6  Bi       0   1.978796         -0.621481         -1.342945
      7      7  Bi       0   2.006960          1.011030          1.258900
      8      8  Ge       0  -0.703486         -0.296852         -2.345823
      9      9  Ge       0   0.949955          2.100705         -1.206519
 ---------------------------------------------------------------------------------------------------
                         Z-Matrix orientation:                         
 ---------------------------------------------------------------------
 Center     Atomic      Atomic             Coordinates (Angstroms)
 Number     Number       Type             X           Y           Z
 ---------------------------------------------------------------------
      1         50           0       -1.888556    2.136976   -1.295202
      2         50           0       -0.131823   -0.809260    2.465422
      3         83           0       -2.374612   -0.301489    0.432221
      4         32           0       -0.681582    2.030883    1.385995
      5         83           0       -0.226293   -2.366342   -0.217910
      6         83           0        1.978796   -0.621481   -1.342945
      7         83           0        2.006960    1.011030    1.258900
      8         32           0       -0.703486   -0.296852   -2.345823
      9         32           0        0.949955    2.100705   -1.206519
 ---------------------------------------------------------------------
                    Distance matrix (angstroms):
                    1          2          3          4          5
     1  Sn   0.000000
     2  Sn   5.090060   0.000000
     3  Bi   3.027598   3.069502   0.000000
     4  Ge   2.942254   3.087687   3.035786   0.000000
     5  Bi   4.919710   3.103820   3.049846   4.702700   0.000000
     6  Bi   4.750555   4.358169   4.712300   4.643249   3.028640
     7  Bi   4.792310   3.056721   4.648040   2.878283   4.309876
     8  Ge   2.903741   4.872108   3.241946   4.398329   3.006412
     9  Ge   2.840128   4.808460   4.416871   3.063971   4.723920
                    6          7          8          9
     6  Bi   0.000000
     7  Bi   3.071723   0.000000
     8  Ge   2.881976   4.695860   0.000000
     9  Ge   2.913318   2.895331   3.127325   0.000000
 Stoichiometry    Bi4Ge3Sn2
 Framework group  C1[X(Bi4Ge3Sn2)]
 Deg. of freedom    21
 Full point group                 C1      NOp   1
 Largest Abelian subgroup         C1      NOp   1
 Largest concise Abelian subgroup C1      NOp   1
                         Standard orientation:                         
 ---------------------------------------------------------------------
 Center     Atomic      Atomic             Coordinates (Angstroms)
 Number     Number       Type             X           Y           Z
 ---------------------------------------------------------------------
      1         50           0        1.888558   -2.136975   -1.295202
      2         50           0        0.131823    0.809260    2.465422
      3         83           0        2.374612    0.301490    0.432221
      4         32           0        0.681583   -2.030883    1.385995
      5         83           0        0.226292    2.366342   -0.217910
      6         83           0       -1.978796    0.621480   -1.342945
      7         83           0       -2.006959   -1.011031    1.258900
      8         32           0        0.703486    0.296852   -2.345823
      9         32           0       -0.949954   -2.100706   -1.206519
 ---------------------------------------------------------------------
 Rotational constants (GHZ):      0.0998293      0.0881156      0.0822088
 Leave Link  202 at Tue Mar  6 11:56:56 2018, MaxMem=   536870912 cpu:         0.0
 (Enter /share/apps//mg09/l301.exe)
 Standard basis: def2TZVP (5D, 7F)
 Ernie: Thresh=  0.10000D-02 Tol=  0.10000D-05 Strict=F.
 There are   519 symmetry adapted cartesian basis functions of A   symmetry.
 There are   444 symmetry adapted basis functions of A   symmetry.
   444 basis functions,   963 primitive gaussians,   519 cartesian basis functions
   116 alpha electrons      116 beta electrons
       nuclear repulsion energy      3558.8076428370 Hartrees.
 IExCor= 1009 DFT=T Ex+Corr=PBE1PBE ExCW=0 ScaHFX=  0.250000
 ScaDFX=  0.750000  0.750000  1.000000  1.000000 ScalE2=  1.000000  1.000000
 IRadAn=      0 IRanWt=     -1 IRanGd=            0 ICorTp=0 IEmpDi=  4
 NAtoms=    9 NActive=    9 NUniq=    9 SFac= 1.00D+00 NAtFMM=   60 NAOKFM=F Big=F
 Integral buffers will be    131072 words long.
 Raffenetti 2 integral format.
 Two-electron integral symmetry is turned on.
 Leave Link  301 at Tue Mar  6 11:57:10 2018, MaxMem=   536870912 cpu:         0.4
 (Enter /share/apps//mg09/l302.exe)
 NPDir=0 NMtPBC=     1 NCelOv=     1 NCel=       1 NClECP=     1 NCelD=      1
         NCelK=      1 NCelE2=     1 NClLst=     1 CellRange=     0.0.
 One-electron integrals computed using PRISM.
   1 Symmetry operations used in ECPInt.
 ECPInt:  NShTT=   10440 NPrTT=   41973 LenC2=    9680 LenP2D=   27501.
 LDataN:  DoStor=T MaxTD1= 8 Len=  415
 NBasis=   444 RedAO= T EigKep=  1.05D-03  NBF=   444
 NBsUse=   444 1.00D-06 EigRej= -1.00D+00 NBFU=   444
 Precomputing XC quadrature grid using
 IXCGrd= 4 IRadAn=           0 IRanWt=          -1 IRanGd=           0 AccXCQ= 0.00D+00.
 Defaulting to unpruned grid for atomic number  50.
 Defaulting to unpruned grid for atomic number  83.
 Defaulting to unpruned grid for atomic number  83.
 Generated NRdTot=       0 NPtTot=           0 NUsed=           0 NTot=          32
 NSgBfM=   501   501   501   501   501 MxSgAt=     9 MxSgA2=     9.
 Leave Link  302 at Tue Mar  6 11:57:27 2018, MaxMem=   536870912 cpu:        30.4
 (Enter /share/apps//mg09/l303.exe)
 DipDrv:  MaxL=1.
 Leave Link  303 at Tue Mar  6 11:57:34 2018, MaxMem=   536870912 cpu:         0.5
 (Enter /share/apps//mg09/l401.exe)
 ExpMin= 4.62D-02 ExpMax= 4.66D+05 ExpMxC= 4.50D+03 IAcc=2 IRadAn=         4 AccDes= 0.00D+00
 Harris functional with IExCor= 1009 and IRadAn=       4 diagonalized for initial guess.
 HarFok:  IExCor= 1009 AccDes= 0.00D+00 IRadAn=         4 IDoV= 1 UseB2=F ITyADJ=14
 ICtDFT=  3500011 ScaDFX=  1.000000  1.000000  1.000000  1.000000
 Defaulting to unpruned grid for atomic number  50.
 Defaulting to unpruned grid for atomic number  50.
 Defaulting to unpruned grid for atomic number  50.
 Defaulting to unpruned grid for atomic number  50.
 FoFCou: FMM=F IPFlag=           0 FMFlag=      100000 FMFlg1=           0
         NFxFlg=           0 DoJE=T BraDBF=F KetDBF=T FulRan=T
         wScrn=  0.000000 ICntrl=     500 IOpCl=  0 I1Cent=   200000004 NGrid=           0
         NMat0=    1 NMatS0=      1 NMatT0=    0 NMatD0=    1 NMtDS0=    0 NMtDT0=    0
 Petite list used in FoFCou.
 Harris En= -7518.60621198179    
 JPrj=0 DoOrth=F DoCkMO=F.
 Leave Link  401 at Tue Mar  6 11:57:44 2018, MaxMem=   536870912 cpu:        12.6
 (Enter /share/apps//mg09/l502.exe)
 Closed shell SCF:
 Using DIIS extrapolation, IDIIS=  1040.
 Integral symmetry usage will be decided dynamically.
 IVT=     1410107 IEndB=     1410107 NGot=   536870912 MDV=   536322046
 LenX=   536322046 LenY=   536052166
 Requested convergence on RMS density matrix=1.00D-08 within 768 cycles.
 Requested convergence on MAX density matrix=1.00D-06.
 Requested convergence on             energy=1.00D-06.
 No special actions if energy rises.
 Fock matrices will be formed incrementally for  20 cycles.

 Cycle   1  Pass 1  IDiag  1:
 FoFJK:  IHMeth= 1 ICntrl=       0 DoSepK=F KAlg= 0 I1Cent=   0 FoldK=F
 IRaf= 880000000 NMat=   1 IRICut=       1 DoRegI=T DoRafI=F ISym2E= 0.
 FoFCou: FMM=F IPFlag=           0 FMFlag=      100000 FMFlg1=           0
         NFxFlg=           0 DoJE=F BraDBF=F KetDBF=F FulRan=T
         wScrn=  0.000000 ICntrl=       0 IOpCl=  0 I1Cent=           0 NGrid=           0
         NMat0=    1 NMatS0=      1 NMatT0=    0 NMatD0=    1 NMtDS0=    0 NMtDT0=    0
 Symmetry not used in FoFCou.
 Defaulting to unpruned grid for atomic number  50.
 Defaulting to unpruned grid for atomic number  50.
 Defaulting to unpruned grid for atomic number  50.
 Defaulting to unpruned grid for atomic number  50.
 E= -7517.23320593902    
 DIIS: error= 2.92D-02 at cycle   1 NSaved=   1.
 NSaved= 1 IEnMin= 1 EnMin= -7517.23320593902     IErMin= 1 ErrMin= 2.92D-02
 ErrMax= 2.92D-02  0.00D+00 EMaxC= 1.00D-01 BMatC= 1.48D+00 BMatP= 1.48D+00
 IDIUse=3 WtCom= 7.08D-01 WtEn= 2.92D-01
 Coeff-Com:  0.100D+01
 Coeff-En:   0.100D+01
 Coeff:      0.100D+01
 Gap=     0.127 Goal=   None    Shift=    0.000
 GapD=    0.127 DampG=1.000 DampE=0.500 DampFc=0.5000 IDamp=-1.
 Damping current iteration by 5.00D-01
 RMSDP=5.31D-03 MaxDP=2.25D-01              OVMax= 6.83D-01

 Cycle   2  Pass 1  IDiag  1:
 RMSU=  2.65D-03    CP:  1.00D+00
 E= -7517.12564241312     Delta-E=        0.107563525900 Rises=F Damp=T
 DIIS: error= 1.27D-02 at cycle   2 NSaved=   2.
 NSaved= 2 IEnMin= 1 EnMin= -7517.23320593902     IErMin= 2 ErrMin= 1.27D-02
 ErrMax= 1.27D-02  0.00D+00 EMaxC= 1.00D-01 BMatC= 2.68D-01 BMatP= 1.48D+00
 IDIUse=3 WtCom= 8.73D-01 WtEn= 1.27D-01
 Coeff-Com:  0.139D+00 0.861D+00
 Coeff-En:   0.564D+00 0.436D+00
 Coeff:      0.193D+00 0.807D+00
 Gap=     0.134 Goal=   None    Shift=    0.000
 RMSDP=3.79D-03 MaxDP=1.78D-01 DE= 1.08D-01 OVMax= 6.28D-01

 Cycle   3  Pass 1  IDiag  1:
 RMSU=  3.08D-03    CP:  1.00D+00  1.67D-01
 E= -7515.75390043785     Delta-E=        1.371741975270 Rises=F Damp=F
 DIIS: error= 4.37D-02 at cycle   3 NSaved=   3.
 NSaved= 3 IEnMin= 1 EnMin= -7517.23320593902     IErMin= 2 ErrMin= 1.27D-02
 ErrMax= 4.37D-02  0.00D+00 EMaxC= 1.00D-01 BMatC= 1.58D+00 BMatP= 2.68D-01
 IDIUse=2 WtCom= 0.00D+00 WtEn= 1.00D+00
 EnCoef did    15 forward-backward iterations
 Coeff-En:   0.429D+00 0.485D+00 0.858D-01
 Coeff:      0.429D+00 0.485D+00 0.858D-01
 Gap=     0.146 Goal=   None    Shift=    0.000
 RMSDP=3.25D-03 MaxDP=1.29D-01 DE= 1.37D+00 OVMax= 3.77D-01

 Cycle   4  Pass 1  IDiag  1:
 RMSU=  1.29D-03    CP:  1.01D+00  8.76D-01  2.48D-01
 E= -7517.73835460197     Delta-E=       -1.984454164118 Rises=F Damp=F
 DIIS: error= 8.35D-03 at cycle   4 NSaved=   4.
 NSaved= 4 IEnMin= 4 EnMin= -7517.73835460197     IErMin= 4 ErrMin= 8.35D-03
 ErrMax= 8.35D-03  0.00D+00 EMaxC= 1.00D-01 BMatC= 1.76D-01 BMatP= 2.68D-01
 IDIUse=3 WtCom= 9.16D-01 WtEn= 8.35D-02
 Coeff-Com:  0.313D+00-0.175D+00-0.790D-01 0.941D+00
 Coeff-En:   0.444D-01 0.000D+00 0.000D+00 0.956D+00
 Coeff:      0.290D+00-0.160D+00-0.724D-01 0.942D+00
 Gap=     0.117 Goal=   None    Shift=    0.000
 RMSDP=9.71D-04 MaxDP=5.84D-02 DE=-1.98D+00 OVMax= 5.35D-02

 Cycle   5  Pass 1  IDiag  1:
 RMSU=  4.72D-04    CP:  1.00D+00  6.68D-01  7.33D-02  7.58D-01
 E= -7517.78993636003     Delta-E=       -0.051581758056 Rises=F Damp=F
 DIIS: error= 3.13D-03 at cycle   5 NSaved=   5.
 NSaved= 5 IEnMin= 5 EnMin= -7517.78993636003     IErMin= 5 ErrMin= 3.13D-03
 ErrMax= 3.13D-03  0.00D+00 EMaxC= 1.00D-01 BMatC= 2.27D-02 BMatP= 1.76D-01
 IDIUse=3 WtCom= 9.69D-01 WtEn= 3.13D-02
 Coeff-Com:  0.109D+00-0.103D+00-0.492D-02 0.427D+00 0.572D+00
 Coeff-En:   0.000D+00 0.000D+00 0.000D+00 0.119D+00 0.881D+00
 Coeff:      0.106D+00-0.997D-01-0.477D-02 0.417D+00 0.581D+00
 Gap=     0.125 Goal=   None    Shift=    0.000
 RMSDP=5.37D-04 MaxDP=3.51D-02 DE=-5.16D-02 OVMax= 5.98D-02

 Cycle   6  Pass 1  IDiag  1:
 RMSU=  3.71D-04    CP:  1.00D+00  6.34D-01  1.45D-01  8.21D-01  3.76D-01
 E= -7517.80006564381     Delta-E=       -0.010129283783 Rises=F Damp=F
 DIIS: error= 2.50D-03 at cycle   6 NSaved=   6.
 NSaved= 6 IEnMin= 6 EnMin= -7517.80006564381     IErMin= 6 ErrMin= 2.50D-03
 ErrMax= 2.50D-03  0.00D+00 EMaxC= 1.00D-01 BMatC= 9.69D-03 BMatP= 2.27D-02
 IDIUse=3 WtCom= 9.75D-01 WtEn= 2.50D-02
 Coeff-Com:  0.448D-01-0.649D-01 0.657D-02 0.213D+00 0.443D+00 0.357D+00
 Coeff-En:   0.000D+00 0.000D+00 0.000D+00 0.000D+00 0.367D+00 0.633D+00
 Coeff:      0.437D-01-0.633D-01 0.640D-02 0.208D+00 0.442D+00 0.364D+00
 Gap=     0.122 Goal=   None    Shift=    0.000
 RMSDP=3.17D-04 MaxDP=1.65D-02 DE=-1.01D-02 OVMax= 3.50D-02

 Cycle   7  Pass 1  IDiag  1:
 RMSU=  1.35D-04    CP:  1.00D+00  6.37D-01  1.35D-01  8.03D-01  6.61D-01
                    CP:  3.28D-01
 E= -7517.80975061034     Delta-E=       -0.009684966526 Rises=F Damp=F
 DIIS: error= 9.25D-04 at cycle   7 NSaved=   7.
 NSaved= 7 IEnMin= 7 EnMin= -7517.80975061034     IErMin= 7 ErrMin= 9.25D-04
 ErrMax= 9.25D-04  0.00D+00 EMaxC= 1.00D-01 BMatC= 1.39D-03 BMatP= 9.69D-03
 IDIUse=3 WtCom= 9.91D-01 WtEn= 9.25D-03
 Coeff-Com:  0.223D-01-0.416D-01 0.402D-02 0.108D+00 0.246D+00 0.281D+00
 Coeff-Com:  0.381D+00
 Coeff-En:   0.000D+00 0.000D+00 0.000D+00 0.000D+00 0.000D+00 0.182D+00
 Coeff-En:   0.818D+00
 Coeff:      0.221D-01-0.412D-01 0.398D-02 0.107D+00 0.244D+00 0.280D+00
 Coeff:      0.385D+00
 Gap=     0.120 Goal=   None    Shift=    0.000
 RMSDP=1.10D-04 MaxDP=4.55D-03 DE=-9.68D-03 OVMax= 1.32D-02

 Cycle   8  Pass 1  IDiag  1:
 RMSU=  4.02D-05    CP:  1.00D+00  6.40D-01  1.36D-01  8.05D-01  6.17D-01
                    CP:  4.47D-01  3.40D-01
 E= -7517.81132124312     Delta-E=       -0.001570632781 Rises=F Damp=F
 DIIS: error= 3.65D-04 at cycle   8 NSaved=   8.
 NSaved= 8 IEnMin= 8 EnMin= -7517.81132124312     IErMin= 8 ErrMin= 3.65D-04
 ErrMax= 3.65D-04  0.00D+00 EMaxC= 1.00D-01 BMatC= 1.49D-04 BMatP= 1.39D-03
 IDIUse=3 WtCom= 9.96D-01 WtEn= 3.65D-03
 Coeff-Com:  0.967D-02-0.187D-01 0.285D-02 0.418D-01 0.883D-01 0.135D+00
 Coeff-Com:  0.268D+00 0.474D+00
 Coeff-En:   0.000D+00 0.000D+00 0.000D+00 0.000D+00 0.000D+00 0.000D+00
 Coeff-En:   0.688D-01 0.931D+00
 Coeff:      0.964D-02-0.187D-01 0.284D-02 0.416D-01 0.880D-01 0.134D+00
 Coeff:      0.267D+00 0.475D+00
 Gap=     0.120 Goal=   None    Shift=    0.000
 RMSDP=3.24D-05 MaxDP=1.27D-03 DE=-1.57D-03 OVMax= 3.73D-03

 Cycle   9  Pass 1  IDiag  1:
 RMSU=  1.54D-05    CP:  1.00D+00  6.38D-01  1.41D-01  8.08D-01  6.09D-01
                    CP:  4.40D-01  4.74D-01  7.27D-01
 E= -7517.81149532374     Delta-E=       -0.000174080618 Rises=F Damp=F
 DIIS: error= 8.34D-05 at cycle   9 NSaved=   9.
 NSaved= 9 IEnMin= 9 EnMin= -7517.81149532374     IErMin= 9 ErrMin= 8.34D-05
 ErrMax= 8.34D-05  0.00D+00 EMaxC= 1.00D-01 BMatC= 9.48D-06 BMatP= 1.49D-04
 IDIUse=1 WtCom= 1.00D+00 WtEn= 0.00D+00
 Coeff-Com:  0.288D-02-0.593D-02 0.493D-03 0.858D-02 0.871D-02 0.322D-01
 Coeff-Com:  0.898D-01 0.251D+00 0.613D+00
 Coeff:      0.288D-02-0.593D-02 0.493D-03 0.858D-02 0.871D-02 0.322D-01
 Coeff:      0.898D-01 0.251D+00 0.613D+00
 Gap=     0.120 Goal=   None    Shift=    0.000
 RMSDP=1.55D-05 MaxDP=7.94D-04 DE=-1.74D-04 OVMax= 1.82D-03

 Cycle  10  Pass 1  IDiag  1:
 RMSU=  1.15D-05    CP:  1.00D+00  6.37D-01  1.41D-01  8.07D-01  6.04D-01
                    CP:  4.48D-01  4.90D-01  7.71D-01  4.20D-01
 E= -7517.81149334537     Delta-E=        0.000001978362 Rises=F Damp=F
 DIIS: error= 8.67D-05 at cycle  10 NSaved=  10.
 NSaved=10 IEnMin= 9 EnMin= -7517.81149532374     IErMin= 9 ErrMin= 8.34D-05
 ErrMax= 8.67D-05  0.00D+00 EMaxC= 1.00D-01 BMatC= 9.33D-06 BMatP= 9.48D-06
 IDIUse=1 WtCom= 1.00D+00 WtEn= 0.00D+00
 Coeff-Com:  0.560D-03-0.135D-02 0.507D-04-0.805D-03-0.941D-02 0.126D-02
 Coeff-Com:  0.241D-01 0.117D+00 0.525D+00 0.344D+00
 Coeff:      0.560D-03-0.135D-02 0.507D-04-0.805D-03-0.941D-02 0.126D-02
 Coeff:      0.241D-01 0.117D+00 0.525D+00 0.344D+00
 Gap=     0.120 Goal=   None    Shift=    0.000
 RMSDP=9.61D-06 MaxDP=4.43D-04 DE= 1.98D-06 OVMax= 1.28D-03

 Cycle  11  Pass 1  IDiag  1:
 RMSU=  4.19D-06    CP:  1.00D+00  6.37D-01  1.41D-01  8.07D-01  6.04D-01
                    CP:  4.49D-01  4.85D-01  7.63D-01  7.36D-01  3.94D-01
 E= -7517.81150531752     Delta-E=       -0.000011972143 Rises=F Damp=F
 DIIS: error= 2.14D-05 at cycle  11 NSaved=  11.
 NSaved=11 IEnMin=11 EnMin= -7517.81150531752     IErMin=11 ErrMin= 2.14D-05
 ErrMax= 2.14D-05  0.00D+00 EMaxC= 1.00D-01 BMatC= 9.07D-07 BMatP= 9.33D-06
 IDIUse=1 WtCom= 1.00D+00 WtEn= 0.00D+00
 Coeff-Com: -0.141D-03 0.195D-03 0.109D-03-0.227D-02-0.857D-02-0.504D-02
 Coeff-Com:  0.217D-02 0.467D-01 0.300D+00 0.256D+00 0.412D+00
 Coeff:     -0.141D-03 0.195D-03 0.109D-03-0.227D-02-0.857D-02-0.504D-02
 Coeff:      0.217D-02 0.467D-01 0.300D+00 0.256D+00 0.412D+00
 Gap=     0.120 Goal=   None    Shift=    0.000
 RMSDP=2.70D-06 MaxDP=1.74D-04 DE=-1.20D-05 OVMax= 3.59D-04

 Cycle  12  Pass 1  IDiag  1:
 RMSU=  1.28D-06    CP:  1.00D+00  6.37D-01  1.42D-01  8.07D-01  6.05D-01
                    CP:  4.48D-01  4.86D-01  7.73D-01  7.36D-01  4.58D-01
                    CP:  5.17D-01
 E= -7517.81150639412     Delta-E=       -0.000001076607 Rises=F Damp=F
 DIIS: error= 3.45D-06 at cycle  12 NSaved=  12.
 NSaved=12 IEnMin=12 EnMin= -7517.81150639412     IErMin=12 ErrMin= 3.45D-06
 ErrMax= 3.45D-06  0.00D+00 EMaxC= 1.00D-01 BMatC= 3.03D-08 BMatP= 9.07D-07
 IDIUse=1 WtCom= 1.00D+00 WtEn= 0.00D+00
 Coeff-Com: -0.592D-04 0.939D-04 0.281D-04-0.689D-03-0.251D-02-0.220D-02
 Coeff-Com: -0.145D-02 0.111D-01 0.864D-01 0.859D-01 0.202D+00 0.621D+00
 Coeff:     -0.592D-04 0.939D-04 0.281D-04-0.689D-03-0.251D-02-0.220D-02
 Coeff:     -0.145D-02 0.111D-01 0.864D-01 0.859D-01 0.202D+00 0.621D+00
 Gap=     0.120 Goal=   None    Shift=    0.000
 RMSDP=5.52D-07 MaxDP=3.59D-05 DE=-1.08D-06 OVMax= 6.95D-05

 Cycle  13  Pass 1  IDiag  1:
 RMSU=  4.10D-07    CP:  1.00D+00  6.37D-01  1.41D-01  8.07D-01  6.05D-01
                    CP:  4.48D-01  4.85D-01  7.74D-01  7.34D-01  4.56D-01
                    CP:  5.39D-01  8.69D-01
 E= -7517.81150641973     Delta-E=       -0.000000025604 Rises=F Damp=F
 DIIS: error= 1.07D-06 at cycle  13 NSaved=  13.
 NSaved=13 IEnMin=13 EnMin= -7517.81150641973     IErMin=13 ErrMin= 1.07D-06
 ErrMax= 1.07D-06  0.00D+00 EMaxC= 1.00D-01 BMatC= 2.99D-09 BMatP= 3.03D-08
 IDIUse=1 WtCom= 1.00D+00 WtEn= 0.00D+00
 Coeff-Com: -0.151D-04 0.315D-04 0.130D-05-0.144D-03-0.533D-03-0.633D-03
 Coeff-Com: -0.100D-02 0.889D-03 0.125D-01 0.163D-01 0.585D-01 0.284D+00
 Coeff-Com:  0.631D+00
 Coeff:     -0.151D-04 0.315D-04 0.130D-05-0.144D-03-0.533D-03-0.633D-03
 Coeff:     -0.100D-02 0.889D-03 0.125D-01 0.163D-01 0.585D-01 0.284D+00
 Coeff:      0.631D+00
 Gap=     0.120 Goal=   None    Shift=    0.000
 RMSDP=2.14D-07 MaxDP=1.52D-05 DE=-2.56D-08 OVMax= 2.18D-05

 Cycle  14  Pass 1  IDiag  1:
 RMSU=  1.42D-07    CP:  1.00D+00  6.37D-01  1.41D-01  8.07D-01  6.05D-01
                    CP:  4.48D-01  4.85D-01  7.75D-01  7.36D-01  4.58D-01
                    CP:  5.59D-01  9.15D-01  8.12D-01
 E= -7517.81150642327     Delta-E=       -0.000000003543 Rises=F Damp=F
 DIIS: error= 5.53D-07 at cycle  14 NSaved=  14.
 NSaved=14 IEnMin=14 EnMin= -7517.81150642327     IErMin=14 ErrMin= 5.53D-07
 ErrMax= 5.53D-07  0.00D+00 EMaxC= 1.00D-01 BMatC= 4.63D-10 BMatP= 2.99D-09
 IDIUse=1 WtCom= 1.00D+00 WtEn= 0.00D+00
 Coeff-Com: -0.449D-05 0.127D-04-0.707D-06-0.102D-04-0.220D-04-0.128D-03
 Coeff-Com: -0.447D-03-0.914D-03-0.271D-02 0.321D-03 0.124D-01 0.103D+00
 Coeff-Com:  0.341D+00 0.548D+00
 Coeff:     -0.449D-05 0.127D-04-0.707D-06-0.102D-04-0.220D-04-0.128D-03
 Coeff:     -0.447D-03-0.914D-03-0.271D-02 0.321D-03 0.124D-01 0.103D+00
 Coeff:      0.341D+00 0.548D+00
 Gap=     0.120 Goal=   None    Shift=    0.000
 RMSDP=8.30D-08 MaxDP=5.63D-06 DE=-3.54D-09 OVMax= 8.42D-06

 Cycle  15  Pass 1  IDiag  1:
 RMSU=  4.78D-08    CP:  1.00D+00  6.37D-01  1.41D-01  8.07D-01  6.05D-01
                    CP:  4.48D-01  4.85D-01  7.75D-01  7.36D-01  4.59D-01
                    CP:  5.59D-01  9.24D-01  9.18D-01  7.05D-01
 E= -7517.81150642350     Delta-E=       -0.000000000233 Rises=F Damp=F
 DIIS: error= 2.33D-07 at cycle  15 NSaved=  15.
 NSaved=15 IEnMin=15 EnMin= -7517.81150642350     IErMin=15 ErrMin= 2.33D-07
 ErrMax= 2.33D-07  0.00D+00 EMaxC= 1.00D-01 BMatC= 5.70D-11 BMatP= 4.63D-10
 IDIUse=1 WtCom= 1.00D+00 WtEn= 0.00D+00
 Coeff-Com: -0.512D-06 0.285D-05-0.959D-06 0.148D-04 0.686D-04 0.358D-04
 Coeff-Com: -0.690D-04-0.613D-03-0.325D-02-0.248D-02-0.282D-02 0.143D-01
 Coeff-Com:  0.929D-01 0.296D+00 0.606D+00
 Coeff:     -0.512D-06 0.285D-05-0.959D-06 0.148D-04 0.686D-04 0.358D-04
 Coeff:     -0.690D-04-0.613D-03-0.325D-02-0.248D-02-0.282D-02 0.143D-01
 Coeff:      0.929D-01 0.296D+00 0.606D+00
 Gap=     0.120 Goal=   None    Shift=    0.000
 RMSDP=3.16D-08 MaxDP=1.77D-06 DE=-2.33D-10 OVMax= 4.19D-06

 Cycle  16  Pass 1  IDiag  1:
 RMSU=  1.64D-08    CP:  1.00D+00  6.37D-01  1.41D-01  8.07D-01  6.05D-01
                    CP:  4.48D-01  4.85D-01  7.75D-01  7.36D-01  4.60D-01
                    CP:  5.60D-01  9.33D-01  9.09D-01  8.37D-01  7.65D-01
 E= -7517.81150642374     Delta-E=       -0.000000000233 Rises=F Damp=F
 DIIS: error= 4.90D-08 at cycle  16 NSaved=  16.
 NSaved=16 IEnMin=16 EnMin= -7517.81150642374     IErMin=16 ErrMin= 4.90D-08
 ErrMax= 4.90D-08  0.00D+00 EMaxC= 1.00D-01 BMatC= 5.64D-12 BMatP= 5.70D-11
 IDIUse=1 WtCom= 1.00D+00 WtEn= 0.00D+00
 Coeff-Com: -0.519D-07 0.385D-06-0.235D-06 0.764D-05 0.366D-04 0.353D-04
 Coeff-Com:  0.110D-04-0.180D-03-0.110D-02-0.124D-02-0.263D-02-0.433D-02
 Coeff-Com:  0.367D-02 0.609D-01 0.285D+00 0.660D+00
 Coeff:     -0.519D-07 0.385D-06-0.235D-06 0.764D-05 0.366D-04 0.353D-04
 Coeff:      0.110D-04-0.180D-03-0.110D-02-0.124D-02-0.263D-02-0.433D-02
 Coeff:      0.367D-02 0.609D-01 0.285D+00 0.660D+00
 Gap=     0.120 Goal=   None    Shift=    0.000
 RMSDP=1.09D-08 MaxDP=6.14D-07 DE=-2.33D-10 OVMax= 1.50D-06

 Cycle  17  Pass 1  IDiag  1:
 RMSU=  5.46D-09    CP:  1.00D+00  6.37D-01  1.41D-01  8.07D-01  6.05D-01
                    CP:  4.48D-01  4.85D-01  7.75D-01  7.36D-01  4.60D-01
                    CP:  5.60D-01  9.36D-01  9.19D-01  8.31D-01  8.72D-01
                    CP:  9.19D-01
 E= -7517.81150642382     Delta-E=       -0.000000000080 Rises=F Damp=F
 DIIS: error= 1.88D-08 at cycle  17 NSaved=  17.
 NSaved=17 IEnMin=17 EnMin= -7517.81150642382     IErMin=17 ErrMin= 1.88D-08
 ErrMax= 1.88D-08  0.00D+00 EMaxC= 1.00D-01 BMatC= 5.72D-13 BMatP= 5.64D-12
 IDIUse=1 WtCom= 1.00D+00 WtEn= 0.00D+00
 Coeff-Com:  0.160D-06-0.374D-06-0.210D-07 0.274D-05 0.116D-04 0.141D-04
 Coeff-Com:  0.120D-04-0.295D-04-0.212D-03-0.354D-03-0.974D-03-0.365D-02
 Coeff-Com: -0.762D-02-0.312D-02 0.751D-01 0.327D+00 0.614D+00
 Coeff:      0.160D-06-0.374D-06-0.210D-07 0.274D-05 0.116D-04 0.141D-04
 Coeff:      0.120D-04-0.295D-04-0.212D-03-0.354D-03-0.974D-03-0.365D-02
 Coeff:     -0.762D-02-0.312D-02 0.751D-01 0.327D+00 0.614D+00
 Gap=     0.120 Goal=   None    Shift=    0.000
 RMSDP=3.38D-09 MaxDP=1.58D-07 DE=-8.00D-11 OVMax= 4.29D-07

 SCF Done:  E(RPBE1PBE) =  -7517.81150642     A.U. after   17 cycles
            NFock= 17  Conv=0.34D-08     -V/T= 2.1285
 KE= 6.661915013355D+03 PE=-2.470877777622D+04 EE= 6.970243613609D+03
 Leave Link  502 at Tue Mar  6 12:12:52 2018, MaxMem=   536870912 cpu:      3515.2
 (Enter /share/apps//mg09/l601.exe)
 Copying SCF densities to generalized density rwf, IOpCl= 0 IROHF=0.

 **********************************************************************

            Population analysis using the SCF density.

 **********************************************************************

 Orbital symmetries:
       Occupied  (A) (A) (A) (A) (A) (A) (A) (A) (A) (A) (A) (A)
                 (A) (A) (A) (A) (A) (A) (A) (A) (A) (A) (A) (A)
                 (A) (A) (A) (A) (A) (A) (A) (A) (A) (A) (A) (A)
                 (A) (A) (A) (A) (A) (A) (A) (A) (A) (A) (A) (A)
                 (A) (A) (A) (A) (A) (A) (A) (A) (A) (A) (A) (A)
                 (A) (A) (A) (A) (A) (A) (A) (A) (A) (A) (A) (A)
                 (A) (A) (A) (A) (A) (A) (A) (A) (A) (A) (A) (A)
                 (A) (A) (A) (A) (A) (A) (A) (A) (A) (A) (A) (A)
                 (A) (A) (A) (A) (A) (A) (A) (A) (A) (A) (A) (A)
                 (A) (A) (A) (A) (A) (A) (A) (A)
       Virtual   (A) (A) (A) (A) (A) (A) (A) (A) (A) (A) (A) (A)
                 (A) (A) (A) (A) (A) (A) (A) (A) (A) (A) (A) (A)
                 (A) (A) (A) (A) (A) (A) (A) (A) (A) (A) (A) (A)
                 (A) (A) (A) (A) (A) (A) (A) (A) (A) (A) (A) (A)
                 (A) (A) (A) (A) (A) (A) (A) (A) (A) (A) (A) (A)
                 (A) (A) (A) (A) (A) (A) (A) (A) (A) (A) (A) (A)
                 (A) (A) (A) (A) (A) (A) (A) (A) (A) (A) (A) (A)
                 (A) (A) (A) (A) (A) (A) (A) (A) (A) (A) (A) (A)
                 (A) (A) (A) (A) (A) (A) (A) (A) (A) (A) (A) (A)
                 (A) (A) (A) (A) (A) (A) (A) (A) (A) (A) (A) (A)
                 (A) (A) (A) (A) (A) (A) (A) (A) (A) (A) (A) (A)
                 (A) (A) (A) (A) (A) (A) (A) (A) (A) (A) (A) (A)
                 (A) (A) (A) (A) (A) (A) (A) (A) (A) (A) (A) (A)
                 (A) (A) (A) (A) (A) (A) (A) (A) (A) (A) (A) (A)
                 (A) (A) (A) (A) (A) (A) (A) (A) (A) (A) (A) (A)
                 (A) (A) (A) (A) (A) (A) (A) (A) (A) (A) (A) (A)
                 (A) (A) (A) (A) (A) (A) (A) (A) (A) (A) (A) (A)
                 (A) (A) (A) (A) (A) (A) (A) (A) (A) (A) (A) (A)
                 (A) (A) (A) (A) (A) (A) (A) (A) (A) (A) (A) (A)
                 (A) (A) (A) (A) (A) (A) (A) (A) (A) (A) (A) (A)
                 (A) (A) (A) (A) (A) (A) (A) (A) (A) (A) (A) (A)
                 (A) (A) (A) (A) (A) (A) (A) (A) (A) (A) (A) (A)
                 (A) (A) (A) (A) (A) (A) (A) (A) (A) (A) (A) (A)
                 (A) (A) (A) (A) (A) (A) (A) (A) (A) (A) (A) (A)
                 (A) (A) (A) (A) (A) (A) (A) (A) (A) (A) (A) (A)
                 (A) (A) (A) (A) (A) (A) (A) (A) (A) (A) (A) (A)
                 (A) (A) (A) (A) (A) (A) (A) (A) (A) (A) (A) (A)
                 (A) (A) (A) (A)
 The electronic state is 1-A.
 Alpha  occ. eigenvalues -- -399.10393-399.09910-399.09850 -49.91933 -49.91471
 Alpha  occ. eigenvalues --  -49.91400 -44.40032 -44.39995 -44.39944 -44.39559
 Alpha  occ. eigenvalues --  -44.39534 -44.39489 -44.39488 -44.39456 -44.39428
 Alpha  occ. eigenvalues --   -6.28424  -6.27975  -6.27893  -6.02092  -6.01934
 Alpha  occ. eigenvalues --   -6.01528  -6.01070  -5.13193  -5.12980  -4.43907
 Alpha  occ. eigenvalues --   -4.43792  -4.43622  -4.43429  -4.43358  -4.43346
 Alpha  occ. eigenvalues --   -4.43240  -4.43199  -4.43149  -3.74402  -3.74235
 Alpha  occ. eigenvalues --   -3.74191  -3.74097  -3.74015  -3.73969  -3.73834
 Alpha  occ. eigenvalues --   -3.73747  -3.73408  -3.73406  -3.73182  -3.73029
 Alpha  occ. eigenvalues --   -3.46400  -3.46352  -3.46232  -3.46168  -3.46139
 Alpha  occ. eigenvalues --   -3.45921  -1.23362  -1.23334  -1.23186  -1.23096
 Alpha  occ. eigenvalues --   -1.23090  -1.22904  -1.22879  -1.22785  -1.22768
 Alpha  occ. eigenvalues --   -1.22743  -1.22697  -1.22673  -1.22655  -1.22590
 Alpha  occ. eigenvalues --   -1.22577  -1.08454  -1.08196  -1.08060  -1.07973
 Alpha  occ. eigenvalues --   -1.07902  -1.07842  -1.07750  -1.07727  -1.07674
 Alpha  occ. eigenvalues --   -1.07580  -1.07344  -1.07214  -1.07091  -1.07003
 Alpha  occ. eigenvalues --   -1.06993  -1.06945  -1.06907  -1.06741  -1.06655
 Alpha  occ. eigenvalues --   -1.06593  -1.02619  -1.02603  -1.02467  -1.02446
 Alpha  occ. eigenvalues --   -1.02429  -1.02375  -1.02339  -1.02300  -1.02210
 Alpha  occ. eigenvalues --   -1.02126  -0.66669  -0.62082  -0.59864  -0.55838
 Alpha  occ. eigenvalues --   -0.51272  -0.46900  -0.44465  -0.42351  -0.40127
 Alpha  occ. eigenvalues --   -0.28963  -0.27683  -0.26662  -0.25433  -0.24756
 Alpha  occ. eigenvalues --   -0.24256  -0.23495  -0.22723  -0.22323  -0.20746
 Alpha  occ. eigenvalues --   -0.19744
 Alpha virt. eigenvalues --   -0.07725  -0.07139  -0.06692  -0.06467  -0.05814
 Alpha virt. eigenvalues --   -0.05516  -0.05385  -0.04624  -0.04356  -0.04020
 Alpha virt. eigenvalues --   -0.03541  -0.02428  -0.01032   0.03730   0.04180
 Alpha virt. eigenvalues --    0.04346   0.06758   0.07852   0.08784   0.09234
 Alpha virt. eigenvalues --    0.09450   0.09574   0.10453   0.10819   0.11069
 Alpha virt. eigenvalues --    0.11460   0.11561   0.11689   0.12076   0.13309
 Alpha virt. eigenvalues --    0.13810   0.14449   0.15460   0.17201   0.17806
 Alpha virt. eigenvalues --    0.18000   0.18442   0.19135   0.20200   0.20666
 Alpha virt. eigenvalues --    0.21434   0.22128   0.23100   0.23365   0.24516
 Alpha virt. eigenvalues --    0.24898   0.25557   0.25865   0.26254   0.27607
 Alpha virt. eigenvalues --    0.28031   0.30074   0.30539   0.31113   0.31552
 Alpha virt. eigenvalues --    0.31610   0.32378   0.33078   0.34350   0.34464
 Alpha virt. eigenvalues --    0.34815   0.35780   0.36756   0.37496   0.37869
 Alpha virt. eigenvalues --    0.38595   0.39976   0.40242   0.41073   0.41431
 Alpha virt. eigenvalues --    0.41787   0.42426   0.43212   0.43666   0.45042
 Alpha virt. eigenvalues --    0.45621   0.47442   0.47607   0.48114   0.48909
 Alpha virt. eigenvalues --    0.49240   0.50098   0.50317   0.51642   0.51981
 Alpha virt. eigenvalues --    0.52331   0.54191   0.55182   0.56722   0.57102
 Alpha virt. eigenvalues --    0.57579   0.57931   0.58169   0.58593   0.59265
 Alpha virt. eigenvalues --    0.59463   0.59998   0.61227   0.61861   0.62453
 Alpha virt. eigenvalues --    0.62959   0.63160   0.63589   0.64686   0.66009
 Alpha virt. eigenvalues --    0.67006   0.67258   0.67784   0.68693   0.69036
 Alpha virt. eigenvalues --    0.69671   0.72728   0.73152   0.74092   0.74531
 Alpha virt. eigenvalues --    0.75676   0.76427   0.77453   0.77583   0.78734
 Alpha virt. eigenvalues --    0.79599   0.79994   0.81142   0.81803   0.82670
 Alpha virt. eigenvalues --    0.83050   0.83532   0.85110   0.85349   0.86927
 Alpha virt. eigenvalues --    0.87154   0.88168   0.88439   0.89109   0.89391
 Alpha virt. eigenvalues --    0.90925   0.91722   0.92278   0.92920   0.93953
 Alpha virt. eigenvalues --    0.94727   0.94945   0.95321   0.96548   0.96925
 Alpha virt. eigenvalues --    0.97466   0.98835   1.00453   1.02041   1.02786
 Alpha virt. eigenvalues --    1.03995   1.04381   1.06981   1.07449   1.08061
 Alpha virt. eigenvalues --    1.08739   1.09206   1.09817   1.10382   1.12245
 Alpha virt. eigenvalues --    1.12694   1.14899   1.15964   1.16260   1.17594
 Alpha virt. eigenvalues --    1.18123   1.18565   1.19017   1.19334   1.19778
 Alpha virt. eigenvalues --    1.20043   1.21133   1.21211   1.21845   1.22510
 Alpha virt. eigenvalues --    1.22681   1.23200   1.23470   1.24085   1.24103
 Alpha virt. eigenvalues --    1.24946   1.25064   1.25672   1.26113   1.26884
 Alpha virt. eigenvalues --    1.27435   1.28084   1.28432   1.28752   1.28925
 Alpha virt. eigenvalues --    1.29259   1.30085   1.31037   1.32006   1.32911
 Alpha virt. eigenvalues --    1.34061   1.34318   1.35299   1.37237   1.39486
 Alpha virt. eigenvalues --    1.40507   1.40899   1.41039   1.43663   1.44133
 Alpha virt. eigenvalues --    1.44274   1.45361   1.46292   1.47156   1.48211
 Alpha virt. eigenvalues --    1.49393   1.50157   1.50645   1.51674   1.54472
 Alpha virt. eigenvalues --    1.54959   1.56965   1.59670   1.60380   1.61637
 Alpha virt. eigenvalues --    1.61833   1.68240   1.72542   2.05265   2.06596
 Alpha virt. eigenvalues --    2.09118   2.10532   2.12523   2.15184   2.15954
 Alpha virt. eigenvalues --    2.16947   2.18063   2.18809   2.20208   2.21837
 Alpha virt. eigenvalues --    2.22737   2.23147   2.23302   2.24381   2.26223
 Alpha virt. eigenvalues --    2.27107   2.29382   2.29903   2.31354   2.31454
 Alpha virt. eigenvalues --    2.33464   2.34582   2.38198   2.38258   2.38724
 Alpha virt. eigenvalues --    2.39894   2.41790   2.42850   2.44005   2.45391
 Alpha virt. eigenvalues --    2.50170   2.50753   2.51172   2.52456   2.54110
 Alpha virt. eigenvalues --    2.56539   2.58768   2.62770   2.64189   2.67136
 Alpha virt. eigenvalues --    2.67162   2.67640   2.73580   2.74706   2.76604
 Alpha virt. eigenvalues --    2.78101   2.79381   2.81832   2.82122   2.83119
 Alpha virt. eigenvalues --    2.83960   2.84717   2.84973   2.87521   2.92295
 Alpha virt. eigenvalues --    3.18888   3.24464   3.31185   3.35684   3.39604
 Alpha virt. eigenvalues --    3.41240   3.92087   3.92376   3.94070   3.98788
 Alpha virt. eigenvalues --    4.04254   4.05376   4.08636   4.11053   4.12542
 Alpha virt. eigenvalues --    5.16214   5.39227   5.45363  35.36169  35.39595
 Alpha virt. eigenvalues --   35.41554  35.42570  35.46045  35.47511  35.50462
 Alpha virt. eigenvalues --   35.51257  35.52999  35.55044  35.61287  35.63519
 Alpha virt. eigenvalues --   35.86319  35.94322  36.03528  36.07358  36.18878
 Alpha virt. eigenvalues --   36.20966  36.91650  36.97072  36.98255  37.01436
 Alpha virt. eigenvalues --   37.10651  37.14738 113.57451 113.58692 120.21755
 Alpha virt. eigenvalues --  120.23682 120.25266 120.25628
          Condensed to atoms (all electrons):
               1          2          3          4          5          6
     1  Sn  21.404901  -0.013917   0.160186   0.146610  -0.017040  -0.022789
     2  Sn  -0.013917  21.446553   0.146039   0.112454   0.169079  -0.021557
     3  Bi   0.160186   0.146039  22.285475   0.118224   0.162833  -0.023457
     4  Ge   0.146610   0.112454   0.118224  31.539216  -0.017893  -0.018358
     5  Bi  -0.017040   0.169079   0.162833  -0.017893  22.429265   0.195672
     6  Bi  -0.022789  -0.021557  -0.023457  -0.018358   0.195672  22.354538
     7  Bi  -0.022525   0.188857  -0.022482   0.163034  -0.030997   0.178488
     8  Ge   0.172921  -0.015621   0.075867  -0.021477   0.122737   0.165046
     9  Ge   0.184173  -0.014484  -0.023487   0.075371  -0.018118   0.142707
               7          8          9
     1  Sn  -0.022525   0.172921   0.184173
     2  Sn   0.188857  -0.015621  -0.014484
     3  Bi  -0.022482   0.075867  -0.023487
     4  Ge   0.163034  -0.021477   0.075371
     5  Bi  -0.030997   0.122737  -0.018118
     6  Bi   0.178488   0.165046   0.142707
     7  Bi  22.387928  -0.019493   0.149024
     8  Ge  -0.019493  31.527308   0.063672
     9  Ge   0.149024   0.063672  31.486218
 Mulliken charges:
               1
     1  Sn   0.007480
     2  Sn   0.002596
     3  Bi   0.120803
     4  Ge  -0.097180
     5  Bi   0.004462
     6  Bi   0.049710
     7  Bi   0.028165
     8  Ge  -0.070960
     9  Ge  -0.045076
 Sum of Mulliken charges =   0.00000
 Mulliken charges with hydrogens summed into heavy atoms:
               1
     1  Sn   0.007480
     2  Sn   0.002596
     3  Bi   0.120803
     4  Ge  -0.097180
     5  Bi   0.004462
     6  Bi   0.049710
     7  Bi   0.028165
     8  Ge  -0.070960
     9  Ge  -0.045076
 Electronic spatial extent (au):  <R**2>=           6000.5299
 Charge=              0.0000 electrons
 Dipole moment (field-independent basis, Debye):
    X=             -0.3514    Y=              1.2556    Z=              0.1549  Tot=              1.3130
 Quadrupole moment (field-independent basis, Debye-Ang):
   XX=           -213.6234   YY=           -218.6914   ZZ=           -221.2016
   XY=             -1.6197   XZ=             -0.0849   YZ=              0.9908
 Traceless Quadrupole moment (field-independent basis, Debye-Ang):
   XX=              4.2154   YY=             -0.8526   ZZ=             -3.3628
   XY=             -1.6197   XZ=             -0.0849   YZ=              0.9908
 Octapole moment (field-independent basis, Debye-Ang**2):
  XXX=            -50.8775  YYY=            113.0627  ZZZ=             14.6608  XYY=            -17.4785
  XXY=             37.5424  XXZ=              7.1023  XZZ=            -25.2712  YZZ=             31.9541
  YYZ=              4.5238  XYZ=              5.7211
 Hexadecapole moment (field-independent basis, Debye-Ang**3):
 XXXX=          -3391.4065 YYYY=          -3245.0768 ZZZZ=          -3103.0306 XXXY=             59.9933
 XXXZ=             50.5740 YYYX=             50.0779 YYYZ=            -65.1657 ZZZX=             13.5517
 ZZZY=            -71.9185 XXYY=          -1133.0998 XXZZ=          -1080.3508 YYZZ=          -1066.8916
 XXYZ=            -36.8508 YYXZ=             12.7757 ZZXY=             15.2087
 N-N= 3.558807642837D+03 E-N=-2.470877777614D+04  KE= 6.661915013355D+03
 No NMR shielding tensors so no spin-rotation constants.
 Leave Link  601 at Tue Mar  6 12:12:56 2018, MaxMem=   536870912 cpu:         2.3
 (Enter /share/apps//mg09/l701.exe)
 Compute integral first derivatives.
 ... and contract with generalized density number  0.
   1 Symmetry operations used in ECPInt.
 ECPInt:  NShTT=   10440 NPrTT=   41973 LenC2=    9680 LenP2D=   27501.
 LDataN:  DoStor=T MaxTD1= 9 Len=  602
 Leave Link  701 at Tue Mar  6 12:13:22 2018, MaxMem=   536870912 cpu:        80.5
 (Enter /share/apps//mg09/l702.exe)
 L702 exits ... SP integral derivatives will be done elsewhere.
 Leave Link  702 at Tue Mar  6 12:13:23 2018, MaxMem=   536870912 cpu:         0.1
 (Enter /share/apps//mg09/l703.exe)
 Compute integral first derivatives, UseDBF=F ICtDFT=           0.
 Integral derivatives from FoFJK, PRISM(SPDF).
 Calling FoFJK, ICntrl=      2127 FMM=F ISym2X=0 I1Cent= 0 IOpClX= 0 NMat=1 NMatS=1 NMatT=0.
 FoFJK:  IHMeth= 1 ICntrl=    2127 DoSepK=F KAlg= 0 I1Cent=   0 FoldK=F
 IRaf=         0 NMat=   1 IRICut=       1 DoRegI=T DoRafI=F ISym2E= 0.
 FoFCou: FMM=F IPFlag=           0 FMFlag=      100000 FMFlg1=         800
         NFxFlg=           0 DoJE=F BraDBF=F KetDBF=F FulRan=T
         wScrn=  0.000000 ICntrl=    2127 IOpCl=  0 I1Cent=           0 NGrid=           0
         NMat0=    1 NMatS0=      1 NMatT0=    0 NMatD0=    1 NMtDS0=    0 NMtDT0=    0
 Symmetry not used in FoFCou.
 Defaulting to unpruned grid for atomic number  50.
 Defaulting to unpruned grid for atomic number  50.
 Defaulting to unpruned grid for atomic number  50.
 Defaulting to unpruned grid for atomic number  50.
 Leave Link  703 at Tue Mar  6 12:17:38 2018, MaxMem=   536870912 cpu:       878.8
 (Enter /share/apps//mg09/l716.exe)
 Dipole        =-1.38251750D-01 4.93976376D-01 6.09423013D-02
 ***** Axes restored to original set *****
 -------------------------------------------------------------------
 Center     Atomic                   Forces (Hartrees/Bohr)
 Number     Number              X              Y              Z
 -------------------------------------------------------------------
      1       50           0.011299759   -0.008563170    0.005816851
      2       50          -0.001260614    0.006191748   -0.009544491
      3       83           0.009062087    0.004024462   -0.001398555
      4       32           0.003612124   -0.009470058   -0.009772259
      5       83          -0.000214970    0.007618429   -0.000138595
      6       83          -0.008264281    0.004636721    0.001705439
      7       83          -0.008949843   -0.000162096   -0.004393683
      8       32           0.003852423    0.005649688    0.011326043
      9       32          -0.009136685   -0.009925722    0.006399251
 -------------------------------------------------------------------
 Cartesian Forces:  Max     0.011326043 RMS     0.006972442
 Force constants in Cartesian coordinates: 
                1             2             3             4             5 
      1  0.148955D+00
      2 -0.294172D-01  0.148178D+00
      3  0.187144D-01 -0.232033D-01  0.129685D+00
      4  0.448119D-02  0.306772D-02  0.132517D-02  0.991715D-01
      5  0.520374D-02  0.436228D-02  0.334483D-02  0.862716D-02  0.112819D+00
      6 -0.361754D-02  0.702481D-02 -0.308859D-03  0.100849D-01 -0.244459D-01
      7 -0.324727D-01  0.123188D-01 -0.842927D-02 -0.478947D-01 -0.800909D-02
      8 -0.229973D-01 -0.475891D-01  0.220981D-01  0.823540D-02 -0.205796D-01
      9  0.164020D-01  0.214515D-01 -0.314375D-01 -0.341601D-01  0.552035D-02
     10 -0.275380D-01 -0.156500D-02 -0.251904D-01 -0.157333D-01  0.540379D-02
     11  0.126009D-01 -0.291035D-01  0.131986D-01  0.927227D-02 -0.463573D-01
     12 -0.581696D-03 -0.202263D-01 -0.531645D-01 -0.689834D-02  0.217150D-01
     13  0.403565D-02  0.280842D-03 -0.328424D-02 -0.129178D-01 -0.498530D-02
     14  0.517075D-02 -0.394161D-02  0.346913D-02 -0.807108D-05 -0.331696D-01
     15 -0.327610D-02  0.350763D-03  0.793888D-02  0.307237D-02 -0.285647D-01
     16 -0.525688D-03  0.844499D-02 -0.830716D-03  0.429104D-03  0.289375D-02
     17  0.629877D-02  0.468480D-02  0.340285D-02  0.263176D-02  0.476789D-02
     18  0.358534D-02  0.247056D-03  0.478071D-02  0.492628D-02  0.201815D-02
     19 -0.314396D-03  0.455579D-02 -0.720369D-02 -0.381055D-01 -0.722150D-02
     20 -0.563630D-03  0.343547D-02 -0.699867D-03 -0.285483D-01 -0.279222D-01
     21 -0.725831D-02  0.262948D-02  0.607566D-02  0.198787D-01  0.154846D-01
     22 -0.290076D-01  0.231954D-01  0.125988D-01  0.468876D-02 -0.594069D-04
     23  0.587023D-02 -0.488767D-01 -0.286861D-01 -0.147605D-02  0.519220D-02
     24 -0.116296D-01  0.551335D-02 -0.376588D-01  0.164080D-02  0.458670D-02
     25 -0.676136D-01 -0.208813D-01  0.122999D-01  0.588072D-02 -0.185315D-02
     26  0.178337D-01 -0.311501D-01  0.707576D-02 -0.180187D-02  0.887410D-03
     27 -0.123386D-01  0.621269D-02 -0.259103D-01  0.130267D-03  0.341030D-03
                6             7             8             9            10 
      6  0.154360D+00
      7  0.700047D-03  0.216145D+00
      8  0.123656D-01  0.168618D-01  0.160416D+00
      9 -0.358142D-01 -0.955735D-02 -0.152938D-01  0.143893D+00
     10  0.179484D-02 -0.417321D-01 -0.289178D-01 -0.134210D-01  0.170369D+00
     11 -0.154130D-01 -0.454650D-03 -0.475131D-01 -0.202344D-01 -0.229743D-01
     12 -0.295370D-01  0.798371D-02 -0.686994D-02 -0.273195D-01 -0.262280D-03
     13 -0.331253D-02 -0.460926D-01  0.340889D-01  0.102631D-01  0.511811D-02
     14  0.733593D-02 -0.275303D-02 -0.413894D-01  0.273012D-02  0.399484D-02
     15 -0.454825D-01  0.863542D-02 -0.664295D-02 -0.192502D-01  0.192120D-02
     16  0.432285D-02 -0.504172D-02 -0.281976D-02  0.250582D-03  0.103441D-02
     17  0.242430D-02  0.374769D-02  0.504456D-02 -0.207940D-02 -0.605629D-03
     18 -0.479786D-02  0.712325D-02  0.786736D-04  0.374697D-02  0.214040D-02
     19 -0.886568D-02 -0.538490D-02 -0.154174D-02  0.267682D-02 -0.725976D-01
     20  0.315300D-02 -0.502375D-02  0.552152D-02  0.699812D-05  0.344746D-01
     21 -0.311788D-01 -0.594217D-02 -0.191488D-02  0.383997D-02  0.155128D-01
     22 -0.469954D-02 -0.332688D-01  0.260569D-03  0.250821D-01  0.664510D-02
     23 -0.179660D-02 -0.656608D-02 -0.150516D-01  0.339502D-02  0.239063D-02
     24 -0.555846D-02 -0.731796D-02 -0.804385D-02 -0.429974D-01  0.122608D-02
     25  0.359264D-02 -0.425703D-02 -0.317013D-02  0.246379D-02 -0.255658D-01
     26  0.935192D-02 -0.101217D-01  0.114099D-02  0.450364D-02  0.779878D-02
     27 -0.168266D-02  0.680432D-02  0.422308D-02  0.533917D-02  0.162783D-01
               11            12            13            14            15 
     11  0.190936D+00
     12  0.371811D-01  0.177197D+00
     13 -0.240928D-02  0.293249D-03  0.102582D+00
     14 -0.514510D-02 -0.696322D-02 -0.420473D-02  0.175442D+00
     15 -0.104940D-04  0.345777D-02 -0.109447D-01 -0.571080D-02  0.118406D+00
     16  0.766417D-02  0.633930D-02 -0.403166D-01  0.344569D-02  0.112943D-01
     17  0.113925D-02 -0.207197D-02 -0.310214D-01 -0.370680D-01  0.102533D-01
     18 -0.634480D-02  0.209238D-02  0.176492D-01 -0.225314D-02 -0.224390D-01
     19  0.781966D-02 -0.129116D-01 -0.150912D-03 -0.318921D-02 -0.447219D-02
     20 -0.321659D-01 -0.197769D-02 -0.307545D-02 -0.455810D-02 -0.244916D-02
     21 -0.116387D-01 -0.303033D-01 -0.437592D-02 -0.238214D-02  0.479309D-02
     22 -0.279309D-03 -0.298510D-02 -0.176483D-01  0.195425D-02 -0.618973D-02
     23  0.148494D-02 -0.482351D-02  0.123190D-01 -0.450314D-01  0.352502D-01
     24 -0.113720D-01 -0.608590D-02 -0.795225D-02 -0.303506D-02 -0.515855D-01
     25 -0.112396D-01  0.902279D-02  0.539031D-02 -0.441048D-02 -0.405986D-04
     26 -0.332749D-01 -0.159634D-01 -0.992628D-03 -0.513918D-02 -0.247622D-02
     27  0.146337D-01 -0.363365D-01  0.166403D-02  0.680918D-02  0.416101D-02
               16            17            18            19            20 
     16  0.178739D+00
     17 -0.217987D-01  0.144324D+00
     18 -0.132199D-01  0.173755D-01  0.116590D+00
     19 -0.266925D-01  0.842908D-02  0.151019D-01  0.179335D+00
     20 -0.102232D-01 -0.250784D-01 -0.247814D-01  0.217045D-02  0.108835D+00
     21 -0.144037D-01 -0.117655D-01 -0.427171D-01  0.265563D-01 -0.298589D-02
     22 -0.716951D-01  0.120407D-02 -0.385075D-01  0.109247D-02 -0.225516D-02
     23  0.154989D-01 -0.250144D-01  0.774020D-03 -0.239156D-02  0.538196D-02
     24 -0.141702D-02 -0.917077D-02 -0.371127D-01 -0.948584D-02 -0.416042D-02
     25 -0.359310D-01  0.311144D-01  0.120101D-02 -0.371815D-01  0.130444D-01
     26 -0.310585D-02 -0.727999D-01  0.128860D-01 -0.863097D-02 -0.334489D-01
     27  0.766424D-02 -0.836824D-02 -0.201431D-01 -0.139605D-02  0.338945D-01
               21            22            23            24            25 
     21  0.153308D+00
     22 -0.437990D-03  0.162105D+00
     23  0.575562D-05 -0.131312D-01  0.154667D+00
     24 -0.191176D-02  0.288167D-01  0.119864D-01  0.215642D+00
     25 -0.295297D-01 -0.229113D-01 -0.125140D-01  0.611914D-02  0.182189D+00
     26  0.125674D-01 -0.108892D-01 -0.327517D-01  0.136956D-01  0.990983D-02
     27 -0.619061D-01 -0.136776D-01 -0.161052D-01 -0.327311D-01 -0.512888D-02
               26            27 
     26  0.206536D+00
     27 -0.416407D-01  0.169210D+00
 Leave Link  716 at Tue Mar  6 12:17:41 2018, MaxMem=   536870912 cpu:         0.1
 (Enter /share/apps//mg09/l103.exe)

 GradGradGradGradGradGradGradGradGradGradGradGradGradGradGradGradGradGrad
 Berny optimization.
 Search for a local minimum.
 Step number   1 out of a maximum of  100
 All quantities printed in internal units (Hartrees-Bohrs-Radians)
 Second derivative matrix not updated -- first step.
 ITU=  0
     Eigenvalues ---    0.07708   0.11801   0.11874   0.12682   0.13278
     Eigenvalues ---    0.13635   0.14801   0.15762   0.16755   0.17004
     Eigenvalues ---    0.18515   0.21366   0.21968   0.23367   0.25110
     Eigenvalues ---    0.26180   0.27908   0.28637   0.29331   0.29857
     Eigenvalues ---    0.32757
 RFO step:  Lambda=-7.84214520D-03 EMin= 7.70807182D-02
 Linear search not attempted -- first point.
 TrRot= -0.000400 -0.001318  0.000923  0.000031  0.000034  0.000031
 MatCor failed.
 Variable       Old X    -DE/DX   Delta X   Delta X   Delta X     New X
                                 (Linear)    (Quad)   (Total)
    X1       -3.56885   0.01130   0.00000   0.06608   0.06535  -3.50350
    Y1        4.03830  -0.00856   0.00000  -0.05395  -0.05548   3.98282
    Z1       -2.44758   0.00582   0.00000   0.03840   0.03944  -2.40814
    X2       -0.24911  -0.00126   0.00000  -0.00560  -0.00575  -0.25486
    Y2       -1.52928   0.00619   0.00000   0.04382   0.04248  -1.48680
    Z2        4.65897  -0.00954   0.00000  -0.06924  -0.06831   4.59066
    X3       -4.48737   0.00906   0.00000   0.05599   0.05566  -4.43171
    Y3       -0.56973   0.00402   0.00000   0.01992   0.01833  -0.55140
    Z3        0.81678  -0.00140   0.00000  -0.01321  -0.01214   0.80464
    X4       -1.28800   0.00361   0.00000   0.01677   0.01623  -1.27177
    Y4        3.83781  -0.00947   0.00000  -0.05013  -0.05153   3.78628
    Z4        2.61915  -0.00977   0.00000  -0.05498  -0.05402   2.56513
    X5       -0.42763  -0.00021   0.00000   0.00441   0.00427  -0.42336
    Y5       -4.47174   0.00762   0.00000   0.06040   0.05906  -4.41268
    Z5       -0.41179  -0.00014   0.00000   0.00365   0.00459  -0.40720
    X6        3.73938  -0.00826   0.00000  -0.04908  -0.04949   3.68989
    Y6       -1.17443   0.00464   0.00000   0.02581   0.02471  -1.14971
    Z6       -2.53780   0.00171   0.00000   0.02214   0.02294  -2.51486
    X7        3.79260  -0.00895   0.00000  -0.05300  -0.05343   3.73917
    Y7        1.91057  -0.00016   0.00000  -0.01599  -0.01708   1.89349
    Z7        2.37898  -0.00439   0.00000  -0.03300  -0.03220   2.34677
    X8       -1.32940   0.00385   0.00000   0.01673   0.01621  -1.31318
    Y8       -0.56097   0.00565   0.00000   0.03360   0.03220  -0.52877
    Z8       -4.43296   0.01133   0.00000   0.06403   0.06500  -4.36797
    X9        1.79515  -0.00914   0.00000  -0.04832  -0.04904   1.74612
    Y9        3.96976  -0.00993   0.00000  -0.05149  -0.05270   3.91706
    Z9       -2.27999   0.00640   0.00000   0.03384   0.03470  -2.24529
         Item               Value     Threshold  Converged?
 Maximum Force            0.011326     0.000450     NO 
 RMS     Force            0.006972     0.000300     NO 
 Maximum Displacement     0.068307     0.001800     NO 
 RMS     Displacement     0.042179     0.001200     NO 
 Predicted change in Energy=-4.109543D-03
 Lowest energy point so far.  Saving SCF results.
 GradGradGradGradGradGradGradGradGradGradGradGradGradGradGradGradGradGrad

 Leave Link  103 at Tue Mar  6 12:17:41 2018, MaxMem=   536870912 cpu:         0.1
 (Enter /share/apps//mg09/l202.exe)
                          Input orientation:                          
 ---------------------------------------------------------------------
 Center     Atomic      Atomic             Coordinates (Angstroms)
 Number     Number       Type             X           Y           Z
 ---------------------------------------------------------------------
      1         50           0       -1.853972    2.107618   -1.274331
      2         50           0       -0.134868   -0.786779    2.429275
      3         83           0       -2.345160   -0.291789    0.425797
      4         32           0       -0.672994    2.003615    1.357410
      5         83           0       -0.224035   -2.335090   -0.215480
      6         83           0        1.952605   -0.608403   -1.330808
      7         83           0        1.978684    1.001991    1.241858
      8         32           0       -0.694907   -0.279811   -2.311428
      9         32           0        0.924006    2.072818   -1.188155
 ---------------------------------------------------------------------
                    Distance matrix (angstroms):
                    1          2          3          4          5
     1  Sn   0.000000
     2  Sn   5.004953   0.000000
     3  Bi   2.981418   3.023960   0.000000
     4  Ge   2.886449   3.037232   2.988800   0.000000
     5  Bi   4.849280   3.065934   3.014215   4.636800   0.000000
     6  Bi   4.676536   4.304369   4.653675   4.576344   2.993855
     7  Bi   4.716234   3.012767   4.586442   2.836899   4.255810
     8  Ge   2.849354   4.800513   3.196228   4.321445   2.973027
     9  Ge   2.779532   4.731206   4.345533   3.005844   4.657655
                    6          7          8          9
     6  Bi   0.000000
     7  Bi   3.035236   0.000000
     8  Ge   2.842342   4.627844   0.000000
     9  Ge   2.875293   2.857267   3.068792   0.000000
 Stoichiometry    Bi4Ge3Sn2
 Framework group  C1[X(Bi4Ge3Sn2)]
 Deg. of freedom    21
 Full point group                 C1      NOp   1
 RotChk:  IX=0 Diff= 1.19D-02
 Largest Abelian subgroup         C1      NOp   1
 Largest concise Abelian subgroup C1      NOp   1
                         Standard orientation:                         
 ---------------------------------------------------------------------
 Center     Atomic      Atomic             Coordinates (Angstroms)
 Number     Number       Type             X           Y           Z
 ---------------------------------------------------------------------
      1         50           0        1.842708   -2.098541   -1.295665
      2         50           0        0.146724    0.774387    2.435216
      3         83           0        2.346597    0.288510    0.418085
      4         32           0        0.674321   -2.009825    1.342249
      5         83           0        0.226498    2.340143   -0.199550
      6         83           0       -1.958749    0.625151   -1.316090
      7         83           0       -1.975897   -1.002327    1.245878
      8         32           0        0.683474    0.297995   -2.311348
      9         32           0       -0.934760   -2.058946   -1.196164
 ---------------------------------------------------------------------
 Rotational constants (GHZ):      0.1026782      0.0906476      0.0845394
 Leave Link  202 at Tue Mar  6 12:17:42 2018, MaxMem=   536870912 cpu:         0.1
 (Enter /share/apps//mg09/l301.exe)
 Standard basis: def2TZVP (5D, 7F)
 Ernie: Thresh=  0.10000D-02 Tol=  0.10000D-05 Strict=F.
 There are   519 symmetry adapted cartesian basis functions of A   symmetry.
 There are   444 symmetry adapted basis functions of A   symmetry.
   444 basis functions,   963 primitive gaussians,   519 cartesian basis functions
   116 alpha electrons      116 beta electrons
       nuclear repulsion energy      3613.6138545353 Hartrees.
 IExCor= 1009 DFT=T Ex+Corr=PBE1PBE ExCW=0 ScaHFX=  0.250000
 ScaDFX=  0.750000  0.750000  1.000000  1.000000 ScalE2=  1.000000  1.000000
 IRadAn=      0 IRanWt=     -1 IRanGd=            0 ICorTp=0 IEmpDi=  4
 NAtoms=    9 NActive=    9 NUniq=    9 SFac= 1.00D+00 NAtFMM=   60 NAOKFM=F Big=F
 Integral buffers will be    131072 words long.
 Raffenetti 2 integral format.
 Two-electron integral symmetry is turned on.
 Leave Link  301 at Tue Mar  6 12:17:42 2018, MaxMem=   536870912 cpu:         0.2
 (Enter /share/apps//mg09/l302.exe)
 NPDir=0 NMtPBC=     1 NCelOv=     1 NCel=       1 NClECP=     1 NCelD=      1
         NCelK=      1 NCelE2=     1 NClLst=     1 CellRange=     0.0.
 One-electron integrals computed using PRISM.
   1 Symmetry operations used in ECPInt.
 ECPInt:  NShTT=   10440 NPrTT=   41973 LenC2=    9705 LenP2D=   27674.
 LDataN:  DoStor=T MaxTD1= 8 Len=  415
 NBasis=   444 RedAO= T EigKep=  9.18D-04  NBF=   444
 NBsUse=   444 1.00D-06 EigRej= -1.00D+00 NBFU=   444
 Precomputing XC quadrature grid using
 IXCGrd= 4 IRadAn=           0 IRanWt=          -1 IRanGd=           0 AccXCQ= 0.00D+00.
 Defaulting to unpruned grid for atomic number  50.
 Defaulting to unpruned grid for atomic number  83.
 Defaulting to unpruned grid for atomic number  83.
 Generated NRdTot=       0 NPtTot=           0 NUsed=           0 NTot=          32
 NSgBfM=   505   505   505   505   505 MxSgAt=     9 MxSgA2=     9.
 Leave Link  302 at Tue Mar  6 12:17:54 2018, MaxMem=   536870912 cpu:        39.3
 (Enter /share/apps//mg09/l303.exe)
 DipDrv:  MaxL=1.
 Leave Link  303 at Tue Mar  6 12:17:54 2018, MaxMem=   536870912 cpu:         0.3
 (Enter /share/apps//mg09/l401.exe)
 Initial guess from the checkpoint file:  "Isomer_26.chk"
 B after Tr=     0.000000    0.000000    0.000000
         Rot=    0.999991   -0.003401   -0.002342    0.001019 Ang=  -0.49 deg.
 Guess basis will be translated and rotated to current coordinates.
 JPrj=2 DoOrth=T DoCkMO=T.
 Generating alternative initial guess.
 ExpMin= 4.62D-02 ExpMax= 4.66D+05 ExpMxC= 4.50D+03 IAcc=2 IRadAn=         4 AccDes= 0.00D+00
 Harris functional with IExCor= 1009 and IRadAn=       4 diagonalized for initial guess.
 HarFok:  IExCor= 1009 AccDes= 0.00D+00 IRadAn=         4 IDoV= 1 UseB2=F ITyADJ=14
 ICtDFT=  3500011 ScaDFX=  1.000000  1.000000  1.000000  1.000000
 Defaulting to unpruned grid for atomic number  50.
 Defaulting to unpruned grid for atomic number  50.
 Defaulting to unpruned grid for atomic number  50.
 Defaulting to unpruned grid for atomic number  50.
 FoFCou: FMM=F IPFlag=           0 FMFlag=      100000 FMFlg1=           0
         NFxFlg=           0 DoJE=T BraDBF=F KetDBF=T FulRan=T
         wScrn=  0.000000 ICntrl=     500 IOpCl=  0 I1Cent=   200000004 NGrid=           0
         NMat0=    1 NMatS0=      1 NMatT0=    0 NMatD0=    1 NMtDS0=    0 NMtDT0=    0
 Petite list used in FoFCou.
 Harris En= -7518.61731814667    
 Leave Link  401 at Tue Mar  6 12:17:59 2018, MaxMem=   536870912 cpu:        14.1
 (Enter /share/apps//mg09/l502.exe)
 Closed shell SCF:
 Using DIIS extrapolation, IDIIS=  1040.
 Integral symmetry usage will be decided dynamically.
 IVT=     1410107 IEndB=     1410107 NGot=   536870912 MDV=   536322046
 LenX=   536322046 LenY=   536052166
 Requested convergence on RMS density matrix=1.00D-08 within 768 cycles.
 Requested convergence on MAX density matrix=1.00D-06.
 Requested convergence on             energy=1.00D-06.
 No special actions if energy rises.
 Fock matrices will be formed incrementally for  20 cycles.

 Cycle   1  Pass 1  IDiag  1:
 FoFJK:  IHMeth= 1 ICntrl=       0 DoSepK=F KAlg= 0 I1Cent=   0 FoldK=F
 IRaf= 880000000 NMat=   1 IRICut=       1 DoRegI=T DoRafI=F ISym2E= 0.
 FoFCou: FMM=F IPFlag=           0 FMFlag=      100000 FMFlg1=           0
         NFxFlg=           0 DoJE=F BraDBF=F KetDBF=F FulRan=T
         wScrn=  0.000000 ICntrl=       0 IOpCl=  0 I1Cent=           0 NGrid=           0
         NMat0=    1 NMatS0=      1 NMatT0=    0 NMatD0=    1 NMtDS0=    0 NMtDT0=    0
 Symmetry not used in FoFCou.
 Defaulting to unpruned grid for atomic number  50.
 Defaulting to unpruned grid for atomic number  50.
 Defaulting to unpruned grid for atomic number  50.
 Defaulting to unpruned grid for atomic number  50.
 E= -7517.81586632666    
 DIIS: error= 5.26D-03 at cycle   1 NSaved=   1.
 NSaved= 1 IEnMin= 1 EnMin= -7517.81586632666     IErMin= 1 ErrMin= 5.26D-03
 ErrMax= 5.26D-03  0.00D+00 EMaxC= 1.00D-01 BMatC= 7.83D-03 BMatP= 7.83D-03
 IDIUse=3 WtCom= 9.47D-01 WtEn= 5.26D-02
 Coeff-Com:  0.100D+01
 Coeff-En:   0.100D+01
 Coeff:      0.100D+01
 Gap=     7.242 Goal=   None    Shift=    0.000
 GapD=    7.242 DampG=2.000 DampE=1.000 DampFc=2.0000 IDamp=-1.
 RMSDP=1.85D-04 MaxDP=4.86D-03              OVMax= 1.92D-02

 Cycle   2  Pass 1  IDiag  1:
 RMSU=  1.84D-04    CP:  1.00D+00
 E= -7517.81581421466     Delta-E=        0.000052111995 Rises=F Damp=F
 DIIS: error= 1.68D-03 at cycle   2 NSaved=   2.
 NSaved= 2 IEnMin= 1 EnMin= -7517.81586632666     IErMin= 2 ErrMin= 1.68D-03
 ErrMax= 1.68D-03  0.00D+00 EMaxC= 1.00D-01 BMatC= 1.58D-03 BMatP= 7.83D-03
 IDIUse=3 WtCom= 9.83D-01 WtEn= 1.68D-02
 Coeff-Com:  0.207D+00 0.793D+00
 Coeff-En:   0.514D+00 0.486D+00
 Coeff:      0.213D+00 0.787D+00
 Gap=     0.123 Goal=   None    Shift=    0.000
 RMSDP=2.14D-04 MaxDP=8.79D-03 DE= 5.21D-05 OVMax= 1.72D-02

 Cycle   3  Pass 1  IDiag  1:
 RMSU=  1.95D-04    CP:  9.99D-01  5.33D-01
 E= -7517.81364511173     Delta-E=        0.002169102934 Rises=F Damp=F
 DIIS: error= 2.49D-03 at cycle   3 NSaved=   3.
 NSaved= 3 IEnMin= 1 EnMin= -7517.81586632666     IErMin= 2 ErrMin= 1.68D-03
 ErrMax= 2.49D-03  0.00D+00 EMaxC= 1.00D-01 BMatC= 3.91D-03 BMatP= 1.58D-03
 IDIUse=3 WtCom= 1.67D-01 WtEn= 8.33D-01
 Coeff-Com:  0.924D-02 0.609D+00 0.382D+00
 Coeff-En:   0.000D+00 0.675D+00 0.325D+00
 Coeff:      0.154D-02 0.664D+00 0.334D+00
 Gap=     0.124 Goal=   None    Shift=    0.000
 RMSDP=1.24D-04 MaxDP=4.76D-03 DE= 2.17D-03 OVMax= 1.29D-02

 Cycle   4  Pass 1  IDiag  1:
 RMSU=  4.94D-05    CP:  9.99D-01  7.92D-01  4.70D-01
 E= -7517.81686558374     Delta-E=       -0.003220472012 Rises=F Damp=F
 DIIS: error= 5.51D-04 at cycle   4 NSaved=   4.
 NSaved= 4 IEnMin= 4 EnMin= -7517.81686558374     IErMin= 4 ErrMin= 5.51D-04
 ErrMax= 5.51D-04  0.00D+00 EMaxC= 1.00D-01 BMatC= 2.67D-04 BMatP= 1.58D-03
 IDIUse=3 WtCom= 9.94D-01 WtEn= 5.51D-03
 Coeff-Com:  0.139D-03 0.445D+00 0.234D+00 0.321D+00
 Coeff-En:   0.000D+00 0.123D+00 0.000D+00 0.877D+00
 Coeff:      0.138D-03 0.443D+00 0.233D+00 0.324D+00
 Gap=     0.124 Goal=   None    Shift=    0.000
 RMSDP=4.18D-05 MaxDP=2.02D-03 DE=-3.22D-03 OVMax= 4.42D-03

 Cycle   5  Pass 1  IDiag  1:
 RMSU=  1.44D-05    CP:  9.99D-01  8.48D-01  4.32D-01  2.55D-01
 E= -7517.81709269984     Delta-E=       -0.000227116096 Rises=F Damp=F
 DIIS: error= 1.13D-04 at cycle   5 NSaved=   5.
 NSaved= 5 IEnMin= 5 EnMin= -7517.81709269984     IErMin= 5 ErrMin= 1.13D-04
 ErrMax= 1.13D-04  0.00D+00 EMaxC= 1.00D-01 BMatC= 1.37D-05 BMatP= 2.67D-04
 IDIUse=3 WtCom= 9.99D-01 WtEn= 1.13D-03
 Coeff-Com: -0.967D-03 0.227D+00 0.110D+00 0.227D+00 0.437D+00
 Coeff-En:   0.000D+00 0.000D+00 0.000D+00 0.384D-01 0.962D+00
 Coeff:     -0.966D-03 0.227D+00 0.110D+00 0.227D+00 0.437D+00
 Gap=     0.124 Goal=   None    Shift=    0.000
 RMSDP=1.01D-05 MaxDP=5.56D-04 DE=-2.27D-04 OVMax= 1.03D-03

 Cycle   6  Pass 1  IDiag  1:
 RMSU=  3.82D-06    CP:  9.99D-01  8.59D-01  4.23D-01  3.95D-01  6.25D-01
 E= -7517.81710706790     Delta-E=       -0.000014368057 Rises=F Damp=F
 DIIS: error= 1.41D-05 at cycle   6 NSaved=   6.
 NSaved= 6 IEnMin= 6 EnMin= -7517.81710706790     IErMin= 6 ErrMin= 1.41D-05
 ErrMax= 1.41D-05  0.00D+00 EMaxC= 1.00D-01 BMatC= 3.52D-07 BMatP= 1.37D-05
 IDIUse=1 WtCom= 1.00D+00 WtEn= 0.00D+00
 Coeff-Com: -0.422D-03 0.672D-01 0.336D-01 0.745D-01 0.195D+00 0.630D+00
 Coeff:     -0.422D-03 0.672D-01 0.336D-01 0.745D-01 0.195D+00 0.630D+00
 Gap=     0.124 Goal=   None    Shift=    0.000
 RMSDP=2.71D-06 MaxDP=1.84D-04 DE=-1.44D-05 OVMax= 3.47D-04

 Cycle   7  Pass 1  IDiag  1:
 RMSU=  2.20D-06    CP:  9.99D-01  8.61D-01  4.27D-01  3.86D-01  6.93D-01
                    CP:  8.47D-01
 E= -7517.81710715846     Delta-E=       -0.000000090567 Rises=F Damp=F
 DIIS: error= 1.38D-05 at cycle   7 NSaved=   7.
 NSaved= 7 IEnMin= 7 EnMin= -7517.81710715846     IErMin= 7 ErrMin= 1.38D-05
 ErrMax= 1.38D-05  0.00D+00 EMaxC= 1.00D-01 BMatC= 2.58D-07 BMatP= 3.52D-07
 IDIUse=1 WtCom= 1.00D+00 WtEn= 0.00D+00
 Coeff-Com: -0.169D-03 0.140D-01 0.793D-02 0.214D-01 0.778D-01 0.489D+00
 Coeff-Com:  0.390D+00
 Coeff:     -0.169D-03 0.140D-01 0.793D-02 0.214D-01 0.778D-01 0.489D+00
 Coeff:      0.390D+00
 Gap=     0.124 Goal=   None    Shift=    0.000
 RMSDP=1.84D-06 MaxDP=7.70D-05 DE=-9.06D-08 OVMax= 2.21D-04

 Cycle   8  Pass 1  IDiag  1:
 RMSU=  1.01D-06    CP:  9.99D-01  8.62D-01  4.28D-01  3.88D-01  6.99D-01
                    CP:  1.06D+00  4.28D-01
 E= -7517.81710741054     Delta-E=       -0.000000252074 Rises=F Damp=F
 DIIS: error= 7.07D-06 at cycle   8 NSaved=   8.
 NSaved= 8 IEnMin= 8 EnMin= -7517.81710741054     IErMin= 8 ErrMin= 7.07D-06
 ErrMax= 7.07D-06  0.00D+00 EMaxC= 1.00D-01 BMatC= 6.89D-08 BMatP= 2.58D-07
 IDIUse=1 WtCom= 1.00D+00 WtEn= 0.00D+00
 Coeff-Com:  0.953D-05-0.144D-01-0.616D-02-0.901D-02-0.585D-02 0.213D+00
 Coeff-Com:  0.347D+00 0.475D+00
 Coeff:      0.953D-05-0.144D-01-0.616D-02-0.901D-02-0.585D-02 0.213D+00
 Coeff:      0.347D+00 0.475D+00
 Gap=     0.124 Goal=   None    Shift=    0.000
 RMSDP=8.00D-07 MaxDP=4.66D-05 DE=-2.52D-07 OVMax= 9.37D-05

 Cycle   9  Pass 1  IDiag  1:
 RMSU=  2.97D-07    CP:  9.99D-01  8.63D-01  4.29D-01  3.93D-01  7.08D-01
                    CP:  1.09D+00  6.13D-01  4.93D-01
 E= -7517.81710749149     Delta-E=       -0.000000080954 Rises=F Damp=F
 DIIS: error= 1.27D-06 at cycle   9 NSaved=   9.
 NSaved= 9 IEnMin= 9 EnMin= -7517.81710749149     IErMin= 9 ErrMin= 1.27D-06
 ErrMax= 1.27D-06  0.00D+00 EMaxC= 1.00D-01 BMatC= 2.80D-09 BMatP= 6.89D-08
 IDIUse=1 WtCom= 1.00D+00 WtEn= 0.00D+00
 Coeff-Com:  0.208D-04-0.926D-02-0.405D-02-0.671D-02-0.102D-01 0.740D-01
 Coeff-Com:  0.165D+00 0.278D+00 0.514D+00
 Coeff:      0.208D-04-0.926D-02-0.405D-02-0.671D-02-0.102D-01 0.740D-01
 Coeff:      0.165D+00 0.278D+00 0.514D+00
 Gap=     0.124 Goal=   None    Shift=    0.000
 RMSDP=1.80D-07 MaxDP=1.02D-05 DE=-8.10D-08 OVMax= 2.98D-05

 Cycle  10  Pass 1  IDiag  1:
 RMSU=  1.08D-07    CP:  9.99D-01  8.63D-01  4.29D-01  3.93D-01  7.14D-01
                    CP:  1.09D+00  6.19D-01  5.79D-01  8.20D-01
 E= -7517.81710749454     Delta-E=       -0.000000003052 Rises=F Damp=F
 DIIS: error= 4.34D-07 at cycle  10 NSaved=  10.
 NSaved=10 IEnMin=10 EnMin= -7517.81710749454     IErMin=10 ErrMin= 4.34D-07
 ErrMax= 4.34D-07  0.00D+00 EMaxC= 1.00D-01 BMatC= 2.64D-10 BMatP= 2.80D-09
 IDIUse=1 WtCom= 1.00D+00 WtEn= 0.00D+00
 Coeff-Com:  0.920D-05-0.325D-02-0.141D-02-0.244D-02-0.489D-02 0.171D-01
 Coeff-Com:  0.501D-01 0.955D-01 0.281D+00 0.569D+00
 Coeff:      0.920D-05-0.325D-02-0.141D-02-0.244D-02-0.489D-02 0.171D-01
 Coeff:      0.501D-01 0.955D-01 0.281D+00 0.569D+00
 Gap=     0.124 Goal=   None    Shift=    0.000
 RMSDP=8.67D-08 MaxDP=3.51D-06 DE=-3.05D-09 OVMax= 1.28D-05

 Cycle  11  Pass 1  IDiag  1:
 RMSU=  7.50D-08    CP:  9.99D-01  8.63D-01  4.29D-01  3.94D-01  7.15D-01
                    CP:  1.10D+00  6.24D-01  5.87D-01  8.86D-01  7.51D-01
 E= -7517.81710749471     Delta-E=       -0.000000000171 Rises=F Damp=F
 DIIS: error= 5.68D-07 at cycle  11 NSaved=  11.
 NSaved=11 IEnMin=11 EnMin= -7517.81710749471     IErMin=10 ErrMin= 4.34D-07
 ErrMax= 5.68D-07  0.00D+00 EMaxC= 1.00D-01 BMatC= 2.89D-10 BMatP= 2.64D-10
 IDIUse=1 WtCom= 1.00D+00 WtEn= 0.00D+00
 Coeff-Com:  0.635D-06 0.380D-03 0.186D-03 0.220D-03-0.901D-03-0.105D-01
 Coeff-Com: -0.138D-01-0.139D-01 0.715D-01 0.552D+00 0.415D+00
 Coeff:      0.635D-06 0.380D-03 0.186D-03 0.220D-03-0.901D-03-0.105D-01
 Coeff:     -0.138D-01-0.139D-01 0.715D-01 0.552D+00 0.415D+00
 Gap=     0.124 Goal=   None    Shift=    0.000
 RMSDP=5.75D-08 MaxDP=2.39D-06 DE=-1.71D-10 OVMax= 7.03D-06

 Cycle  12  Pass 1  IDiag  1:
 RMSU=  2.12D-08    CP:  9.99D-01  8.63D-01  4.29D-01  3.94D-01  7.15D-01
                    CP:  1.10D+00  6.26D-01  5.89D-01  9.24D-01  1.01D+00
                    CP:  4.71D-01
 E= -7517.81710749500     Delta-E=       -0.000000000284 Rises=F Damp=F
 DIIS: error= 1.13D-07 at cycle  12 NSaved=  12.
 NSaved=12 IEnMin=12 EnMin= -7517.81710749500     IErMin=12 ErrMin= 1.13D-07
 ErrMax= 1.13D-07  0.00D+00 EMaxC= 1.00D-01 BMatC= 1.39D-11 BMatP= 2.64D-10
 IDIUse=1 WtCom= 1.00D+00 WtEn= 0.00D+00
 Coeff-Com: -0.539D-06 0.559D-03 0.256D-03 0.382D-03-0.653D-04-0.786D-02
 Coeff-Com: -0.138D-01-0.185D-01 0.150D-01 0.284D+00 0.266D+00 0.474D+00
 Coeff:     -0.539D-06 0.559D-03 0.256D-03 0.382D-03-0.653D-04-0.786D-02
 Coeff:     -0.138D-01-0.185D-01 0.150D-01 0.284D+00 0.266D+00 0.474D+00
 Gap=     0.124 Goal=   None    Shift=    0.000
 RMSDP=1.31D-08 MaxDP=7.44D-07 DE=-2.84D-10 OVMax= 1.54D-06

 Cycle  13  Pass 1  IDiag  1:
 RMSU=  7.66D-09    CP:  9.99D-01  8.63D-01  4.29D-01  3.94D-01  7.15D-01
                    CP:  1.10D+00  6.27D-01  5.89D-01  9.39D-01  1.02D+00
                    CP:  5.55D-01  7.16D-01
 E= -7517.81710749523     Delta-E=       -0.000000000235 Rises=F Damp=F
 DIIS: error= 3.48D-08 at cycle  13 NSaved=  13.
 NSaved=13 IEnMin=13 EnMin= -7517.81710749523     IErMin=13 ErrMin= 3.48D-08
 ErrMax= 3.48D-08  0.00D+00 EMaxC= 1.00D-01 BMatC= 1.17D-12 BMatP= 1.39D-11
 IDIUse=1 WtCom= 1.00D+00 WtEn= 0.00D+00
 Coeff-Com: -0.391D-06 0.243D-03 0.108D-03 0.177D-03 0.126D-03-0.252D-02
 Coeff-Com: -0.531D-02-0.789D-02-0.701D-02 0.585D-01 0.760D-01 0.259D+00
 Coeff-Com:  0.629D+00
 Coeff:     -0.391D-06 0.243D-03 0.108D-03 0.177D-03 0.126D-03-0.252D-02
 Coeff:     -0.531D-02-0.789D-02-0.701D-02 0.585D-01 0.760D-01 0.259D+00
 Coeff:      0.629D+00
 Gap=     0.124 Goal=   None    Shift=    0.000
 RMSDP=4.41D-09 MaxDP=3.72D-07 DE=-2.35D-10 OVMax= 7.15D-07

 SCF Done:  E(RPBE1PBE) =  -7517.81710750     A.U. after   13 cycles
            NFock= 13  Conv=0.44D-08     -V/T= 2.1284
 KE= 6.662125131258D+03 PE=-2.481846133422D+04 EE= 7.024905240928D+03
 Leave Link  502 at Tue Mar  6 12:30:02 2018, MaxMem=   536870912 cpu:      2676.3
 (Enter /share/apps//mg09/l701.exe)
 Compute integral first derivatives.
 ... and contract with generalized density number  0.
   1 Symmetry operations used in ECPInt.
 ECPInt:  NShTT=   10440 NPrTT=   41973 LenC2=    9705 LenP2D=   27674.
 LDataN:  DoStor=T MaxTD1= 9 Len=  602
 Leave Link  701 at Tue Mar  6 12:30:25 2018, MaxMem=   536870912 cpu:        86.4
 (Enter /share/apps//mg09/l702.exe)
 L702 exits ... SP integral derivatives will be done elsewhere.
 Leave Link  702 at Tue Mar  6 12:30:26 2018, MaxMem=   536870912 cpu:         0.1
 (Enter /share/apps//mg09/l703.exe)
 Compute integral first derivatives, UseDBF=F ICtDFT=           0.
 Integral derivatives from FoFJK, PRISM(SPDF).
 Calling FoFJK, ICntrl=      2127 FMM=F ISym2X=0 I1Cent= 0 IOpClX= 0 NMat=1 NMatS=1 NMatT=0.
 FoFJK:  IHMeth= 1 ICntrl=    2127 DoSepK=F KAlg= 0 I1Cent=   0 FoldK=F
 IRaf=         0 NMat=   1 IRICut=       1 DoRegI=T DoRafI=F ISym2E= 0.
 FoFCou: FMM=F IPFlag=           0 FMFlag=      100000 FMFlg1=         800
         NFxFlg=           0 DoJE=F BraDBF=F KetDBF=F FulRan=T
         wScrn=  0.000000 ICntrl=    2127 IOpCl=  0 I1Cent=           0 NGrid=           0
         NMat0=    1 NMatS0=      1 NMatT0=    0 NMatD0=    1 NMtDS0=    0 NMtDT0=    0
 Symmetry not used in FoFCou.
 Defaulting to unpruned grid for atomic number  50.
 Defaulting to unpruned grid for atomic number  50.
 Defaulting to unpruned grid for atomic number  50.
 Defaulting to unpruned grid for atomic number  50.
 Leave Link  703 at Tue Mar  6 12:34:23 2018, MaxMem=   536870912 cpu:       869.2
 (Enter /share/apps//mg09/l716.exe)
 Dipole        =-1.61324537D-01 5.27710760D-01 6.68964645D-02
 ***** Axes restored to original set *****
 -------------------------------------------------------------------
 Center     Atomic                   Forces (Hartrees/Bohr)
 Number     Number              X              Y              Z
 -------------------------------------------------------------------
      1       50           0.005167683   -0.002488550    0.001847155
      2       50          -0.001031147    0.003573146   -0.003278797
      3       83           0.002045928    0.001670901   -0.000126894
      4       32           0.002460233   -0.005230531   -0.005511534
      5       83          -0.000454276    0.000848769   -0.000450552
      6       83          -0.002110114    0.002104413   -0.001922583
      7       83          -0.002756155    0.001662044   -0.000324426
      8       32           0.002413936    0.003665804    0.006212247
      9       32          -0.005736088   -0.005805995    0.003555384
 -------------------------------------------------------------------
 Cartesian Forces:  Max     0.006212247 RMS     0.003293959
 Leave Link  716 at Tue Mar  6 12:34:23 2018, MaxMem=   536870912 cpu:         0.1
 (Enter /share/apps//mg09/l103.exe)

 GradGradGradGradGradGradGradGradGradGradGradGradGradGradGradGradGradGrad
 Berny optimization.
 Search for a local minimum.
 Step number   2 out of a maximum of  100
 All quantities printed in internal units (Hartrees-Bohrs-Radians)
 Update second derivatives using D2CorN and points    1    2
 DE= -5.60D-03 DEPred=-4.11D-03 R= 1.36D+00
 TightC=F SS=  1.41D+00  RLast= 2.19D-01 DXNew= 5.0454D-01 6.5750D-01
 Trust test= 1.36D+00 RLast= 2.19D-01 DXMaxT set to 5.05D-01
 ITU=  1  0
     Eigenvalues ---    0.07638   0.09438   0.11865   0.11932   0.12730
     Eigenvalues ---    0.13518   0.14178   0.14915   0.16624   0.16975
     Eigenvalues ---    0.18467   0.21370   0.21966   0.23123   0.25024
     Eigenvalues ---    0.26180   0.27903   0.28611   0.29335   0.29803
     Eigenvalues ---    0.32755
 RFO step:  Lambda=-5.14495955D-04 EMin= 7.63772256D-02
 Quartic linear search produced a step of  0.62529.
 TrRot= -0.000033 -0.000263  0.000120  0.000006  0.000017  0.000006
 MatCor failed.
 Variable       Old X    -DE/DX   Delta X   Delta X   Delta X     New X
                                 (Linear)    (Quad)   (Total)
    X1       -3.50350   0.00517   0.04087   0.00736   0.04810  -3.45540
    Y1        3.98282  -0.00249  -0.03469   0.00465  -0.03034   3.95248
    Z1       -2.40814   0.00185   0.02466  -0.00023   0.02461  -2.38352
    X2       -0.25486  -0.00103  -0.00360  -0.00883  -0.01237  -0.26723
    Y2       -1.48680   0.00357   0.02656   0.01044   0.03673  -1.45006
    Z2        4.59066  -0.00328  -0.04271   0.00805  -0.03453   4.55613
    X3       -4.43171   0.00205   0.03480  -0.01002   0.02477  -4.40694
    Y3       -0.55140   0.00167   0.01146   0.00017   0.01131  -0.54009
    Z3        0.80464  -0.00013  -0.00759   0.00226  -0.00514   0.79950
    X4       -1.27177   0.00246   0.01015   0.00452   0.01463  -1.25714
    Y4        3.78628  -0.00523  -0.03222  -0.00785  -0.04035   3.74593
    Z4        2.56513  -0.00551  -0.03378  -0.00913  -0.04277   2.52237
    X5       -0.42336  -0.00045   0.00267  -0.00229   0.00039  -0.42297
    Y5       -4.41268   0.00085   0.03693  -0.01798   0.01868  -4.39400
[...]
     X                X                  X                                                                                           
     X                X                                                                                                              
     X                X                                                                                                              
     X                                                                                                                               
     X                                                                                                                               
     X                                                                                                                               
     X                                                                                                                               
     X                                                                                                                               
     X                                                                                                                               
     X                                                                                                                               
     X                                                                                                                               
     X                                                                                                                               
     X                                                                                                                               
     X                                                                                                                               
     X                                                                                                                               
     X                                                                                                                               
 
 ***** Axes restored to original set *****
 -------------------------------------------------------------------
 Center     Atomic                   Forces (Hartrees/Bohr)
 Number     Number              X              Y              Z
 -------------------------------------------------------------------
      1       50          -0.000030915   -0.000018982    0.000053178
      2       50          -0.000007699    0.000002004   -0.000000517
      3       83           0.000004510   -0.000014453    0.000018222
      4       32          -0.000001645    0.000047239    0.000026916
      5       83          -0.000003244   -0.000052701    0.000006652
      6       83           0.000005408   -0.000007022    0.000012422
      7       83           0.000006872   -0.000002587    0.000009532
      8       32           0.000028321    0.000058072   -0.000059126
      9       32          -0.000001607   -0.000011570   -0.000067278
 -------------------------------------------------------------------
 Cartesian Forces:  Max     0.000067278 RMS     0.000029358
 Force constants in Cartesian coordinates: 
                1             2             3             4             5 
      1  0.691117D-01
      2 -0.162790D-01  0.600464D-01
      3  0.912575D-02 -0.154608D-01  0.475763D-01
      4  0.468246D-03  0.131187D-02 -0.268267D-02  0.456345D-01
      5 -0.231143D-03 -0.202029D-02  0.597367D-03  0.100322D-01  0.422663D-01
      6  0.872295D-03 -0.380652D-03 -0.248078D-02  0.888618D-02 -0.120354D-01
      7 -0.419767D-02 -0.496457D-02  0.380254D-02 -0.219497D-01  0.488570D-03
      8 -0.518750D-02 -0.266835D-01  0.199188D-01  0.141761D-02 -0.750875D-03
      9  0.422900D-02  0.192186D-01 -0.124702D-01 -0.185629D-01  0.623838D-02
     10 -0.675129D-02  0.222407D-02 -0.137718D-01  0.281748D-02  0.371476D-02
     11  0.257018D-02 -0.547084D-03  0.325052D-02  0.299311D-02 -0.142911D-01
     12 -0.113182D-01  0.117348D-02 -0.252856D-01 -0.211868D-02  0.618992D-02
     13  0.570034D-03  0.369936D-02 -0.784957D-03 -0.626621D-03  0.118583D-02
     14 -0.136341D-02 -0.309747D-02 -0.199332D-03  0.607007D-04 -0.120170D-01
     15 -0.500461D-03  0.147393D-02  0.575642D-03 -0.152099D-02 -0.112050D-01
     16 -0.378622D-02 -0.951108D-03  0.820047D-03 -0.603164D-03  0.141079D-03
     17  0.271429D-03 -0.336913D-02 -0.204944D-03 -0.208011D-02  0.112830D-03
     18 -0.142770D-02  0.117112D-02 -0.145584D-02  0.500094D-02 -0.223392D-02
     19 -0.303351D-02 -0.470962D-03 -0.287239D-03 -0.227184D-01 -0.162353D-01
     20  0.177082D-02 -0.111813D-02  0.109847D-02 -0.146467D-01 -0.125188D-01
     21  0.264372D-03 -0.472307D-03 -0.277689D-02  0.874567D-02  0.105082D-01
     22 -0.737158D-02  0.140047D-01  0.538374D-02 -0.249182D-02  0.244957D-03
     23  0.120749D-01 -0.240707D-01 -0.992441D-02  0.562234D-03  0.294891D-02
     24  0.265677D-02 -0.838526D-02 -0.488638D-02 -0.317224D-02 -0.314842D-02
     25 -0.450097D-01  0.142567D-02 -0.160544D-02 -0.530522D-03  0.659085D-03
     26  0.637378D-02  0.859998D-03  0.924289D-03  0.349105D-03 -0.372992D-02
     27 -0.390184D-02  0.166192D-02  0.120380D-02  0.542468D-02  0.508892D-02
                6             7             8             9            10 
      6  0.676538D-01
      7 -0.171655D-01  0.801339D-01
      8  0.501473D-02 -0.405376D-02  0.662737D-01
      9 -0.162400D-01  0.123735D-02 -0.115257D-01  0.435532D-01
     10 -0.834862D-04 -0.106096D-01 -0.867006D-02 -0.540285D-02  0.584726D-01
     11  0.504436D-02 -0.708104D-02 -0.150216D-01 -0.731216D-02 -0.122721D-01
     12 -0.561039D-02 -0.343022D-02 -0.604649D-02 -0.962831D-03  0.956713D-02
     13 -0.285226D-04 -0.239690D-01  0.200947D-01  0.104208D-01 -0.231516D-02
     14 -0.114174D-01  0.195371D-01 -0.235233D-01 -0.672986D-02 -0.586899D-03
     15 -0.232277D-01  0.903376D-02 -0.357928D-02 -0.163763D-03 -0.221707D-02
     16 -0.114343D-02 -0.574981D-02  0.309160D-02  0.297171D-02  0.129048D-02
     17  0.151152D-02 -0.372103D-02  0.414587D-02  0.251188D-02  0.535106D-02
     18 -0.422767D-02 -0.591636D-03 -0.195043D-02 -0.176065D-02  0.781941D-02
     19  0.731253D-02 -0.489886D-02 -0.116616D-02 -0.170846D-02 -0.370615D-01
     20  0.869798D-02  0.311229D-03 -0.108713D-02 -0.351861D-02  0.134345D-01
     21 -0.725145D-02  0.198169D-02  0.417241D-03  0.968030D-03 -0.173055D-02
     22  0.147685D-02 -0.548302D-02  0.116926D-02  0.183301D-02 -0.321199D-02
     23  0.406502D-02  0.116141D-03  0.234437D-02  0.139363D-02 -0.388549D-02
     24 -0.573554D-02  0.325953D-02 -0.159072D-02 -0.870789D-02 -0.789286D-03
     25 -0.126911D-03 -0.327620D-02 -0.669564D-02  0.498233D-02 -0.263102D-02
     26 -0.500119D-03 -0.632672D-03 -0.569750D-02 -0.276128D-03  0.690232D-03
     27 -0.288036D-02  0.187249D-02 -0.658172D-03 -0.421588D-02  0.660847D-02
               11            12            13            14            15 
     11  0.504536D-01
     12  0.847906D-02  0.518424D-01
     13  0.327613D-02  0.888504D-03  0.543530D-01
     14 -0.383624D-02 -0.460515D-03 -0.257732D-02  0.842618D-01
     15 -0.632190D-02 -0.294011D-03 -0.171301D-01 -0.802631D-03  0.453513D-01
     16  0.711265D-04  0.478940D-04 -0.275912D-01 -0.180256D-01  0.146767D-01
     17 -0.544329D-02 -0.286107D-02 -0.167168D-01 -0.197585D-01  0.104107D-01
     18 -0.102646D-02 -0.428155D-02  0.128295D-01  0.100800D-01 -0.541445D-02
     19  0.114047D-01 -0.266317D-02 -0.121029D-02  0.966635D-03  0.774681D-03
     20 -0.460326D-02  0.280190D-03 -0.653158D-02 -0.354948D-02 -0.466823D-02
     21 -0.364518D-02 -0.132862D-02  0.516203D-03 -0.714432D-04 -0.151054D-02
     22 -0.780912D-03  0.390644D-02  0.197456D-02  0.212560D-02 -0.191115D-02
     23 -0.253205D-02 -0.502666D-02  0.411847D-02 -0.139502D-01  0.817379D-02
     24 -0.103564D-02 -0.573045D-02 -0.355129D-02  0.100529D-01 -0.141797D-01
     25 -0.181134D-03  0.512029D-02 -0.118537D-02 -0.136880D-03 -0.120537D-02
     26 -0.417898D-02 -0.172792D-02 -0.654877D-02 -0.452969D-02  0.651859D-02
     27  0.256740D-02 -0.834893D-02 -0.316013D-02 -0.451780D-03 -0.113684D-02
               16            17            18            19            20 
     16  0.858161D-01
     17 -0.668827D-02  0.655011D-01
     18 -0.116356D-01  0.116233D-01  0.464372D-01
     19 -0.484214D-02  0.678548D-03 -0.374251D-02  0.811482D-01
     20  0.236286D-02 -0.108628D-01 -0.150135D-01  0.311604D-02  0.404924D-01
     21  0.197500D-03 -0.190944D-01 -0.267951D-01  0.135784D-01  0.108629D-03
     22 -0.357901D-01  0.793108D-02 -0.112672D-01  0.152854D-02 -0.410426D-02
     23  0.783430D-02 -0.130532D-02  0.628099D-03 -0.447918D-03 -0.272412D-02
     24 -0.107985D-01 -0.179807D-02 -0.509084D-02 -0.242182D-03  0.856727D-03
     25 -0.874402D-02  0.149741D-01  0.301469D-02 -0.891203D-02  0.428714D-02
     26  0.121640D-01 -0.290208D-01 -0.327820D-02  0.215448D-02 -0.402866D-02
     27  0.486365D-02 -0.209889D-02  0.258897D-02 -0.130221D-01  0.121583D-01
               21            22            23            24            25 
     21  0.714329D-01
     22 -0.927766D-02  0.518057D-01
     23 -0.930723D-03 -0.161892D-01  0.458137D-01
     24 -0.548694D-02  0.138659D-01  0.390872D-02  0.550382D-01
     25 -0.142756D-01 -0.960308D-03 -0.418337D-02 -0.122864D-02  0.712492D-01
     26  0.131800D-01 -0.440119D-02 -0.652455D-02  0.113973D-02 -0.101489D-01
     27 -0.272514D-01 -0.400994D-02 -0.228747D-02 -0.522047D-02  0.532470D-02
               26            27 
     26  0.568501D-01
     27 -0.159803D-01  0.452611D-01
 Leave Link  716 at Tue Mar  6 15:54:23 2018, MaxMem=   536870912 cpu:         0.1
 (Enter /share/apps//mg09/l103.exe)

 GradGradGradGradGradGradGradGradGradGradGradGradGradGradGradGradGradGrad
 Berny optimization.
 Search for a local minimum.
 Step number   1 out of a maximum of    2
 All quantities printed in internal units (Hartrees-Bohrs-Radians)
 Second derivative matrix not updated -- analytic derivatives used.
 ITU=  0
     Eigenvalues ---    0.00933   0.01738   0.02489   0.03865   0.04028
     Eigenvalues ---    0.04479   0.05045   0.05587   0.05973   0.06178
     Eigenvalues ---    0.06321   0.07693   0.07877   0.08391   0.09652
     Eigenvalues ---    0.10073   0.11924   0.12286   0.13814   0.14294
     Eigenvalues ---    0.15464
 Angle between quadratic step and forces=  40.13 degrees.
 Linear search not attempted -- first point.
 TrRot=  0.000041  0.000046 -0.000079 -0.000002 -0.000010 -0.000002
 Variable       Old X    -DE/DX   Delta X   Delta X   Delta X     New X
                                 (Linear)    (Quad)   (Total)
    X1       -3.48337  -0.00003   0.00000  -0.00141  -0.00133  -3.48471
    Y1        3.98767  -0.00002   0.00000  -0.00064  -0.00058   3.98709
    Z1       -2.38547   0.00005   0.00000   0.00207   0.00196  -2.38351
    X2       -0.28723  -0.00001   0.00000   0.00077   0.00076  -0.28646
    Y2       -1.41764   0.00000   0.00000  -0.00040  -0.00035  -1.41800
    Z2        4.55636   0.00000   0.00000  -0.00066  -0.00074   4.55562
    X3       -4.43154   0.00000   0.00000  -0.00007  -0.00004  -4.43158
    Y3       -0.56191  -0.00001   0.00000  -0.00061  -0.00055  -0.56246
    Z3        0.78195   0.00002   0.00000   0.00137   0.00124   0.78319
    X4       -1.22211   0.00000   0.00000   0.00013   0.00016  -1.22195
    Y4        3.71799   0.00005   0.00000   0.00097   0.00102   3.71901
    Z4        2.47796   0.00003   0.00000   0.00051   0.00042   2.47839
    X5       -0.41026   0.00000   0.00000  -0.00196  -0.00193  -0.41219
    Y5       -4.40119  -0.00005   0.00000  -0.00094  -0.00090  -4.40208
    Z5       -0.39704   0.00001   0.00000  -0.00091  -0.00100  -0.39804
    X6        3.68651   0.00001   0.00000   0.00039   0.00045   3.68697
    Y6       -1.13586  -0.00001   0.00000  -0.00167  -0.00164  -1.13749
    Z6       -2.55813   0.00001   0.00000   0.00260   0.00256  -2.55556
    X7        3.73953   0.00001   0.00000  -0.00029  -0.00026   3.73927
    Y7        1.90227   0.00000   0.00000   0.00160   0.00163   1.90390
    Z7        2.35055   0.00001   0.00000   0.00015   0.00011   2.35066
    X8       -1.27760   0.00003   0.00000   0.00269   0.00277  -1.27483
    Y8       -0.45972   0.00006   0.00000   0.00261   0.00266  -0.45707
    Z8       -4.27324  -0.00006   0.00000  -0.00174  -0.00184  -4.27508
    X9        1.66284   0.00000   0.00000  -0.00065  -0.00058   1.66227
    Y9        3.81868  -0.00001   0.00000  -0.00134  -0.00130   3.81738
    Z9       -2.18919  -0.00007   0.00000  -0.00266  -0.00272  -2.19191
         Item               Value     Threshold  Converged?
 Maximum Force            0.000067     0.000450     YES
 RMS     Force            0.000029     0.000300     YES
 Maximum Displacement     0.002769     0.001800     NO 
 RMS     Displacement     0.001434     0.001200     NO 
 Predicted change in Energy=-4.328557D-07
 GradGradGradGradGradGradGradGradGradGradGradGradGradGradGradGradGradGrad

 Leave Link  103 at Tue Mar  6 15:54:23 2018, MaxMem=   536870912 cpu:         0.2
 (Enter /share/apps//mg09/l9999.exe)
 1\1\GINC-COMPUTE-0-0\Freq\RPBE1PBE\def2TZVP\Bi4Ge3Sn2\RODRIGO\06-Mar-2
 018\0\\#P Geom=AllCheck Guess=TCheck SCRF=Check GenChk RPBE1PBE/def2TZ
 VP Freq\\01Final_coords.xyz_26\\0,1\Sn,-1.8433226107,2.1101857864,-1.2
 623345234\Sn,-0.1519938839,-0.7501852253,2.4111211413\Bi,-2.3450707413
 ,-0.2973494013,0.4137888025\Ge,-0.6467134027,1.9674747485,1.3112822512
 \Bi,-0.2171002883,-2.3290070609,-0.2101035764\Bi,1.95081964,-0.6010690
 124,-1.35370162\Bi,1.978875236,1.0066361939,1.2438578046\Ge,-0.6760744
 411,-0.2432745798,-2.2613036483\Ge,0.8799394922,2.020758551,-1.1584676
 316\\Version=ES64L-G09RevD.01\State=1-A\HF=-7517.8190311\RMSD=4.318e-0
 9\RMSF=2.936e-05\ZeroPoint=0.0058169\Thermal=0.0232874\Dipole=0.159381
 ,-0.5344812,0.0514006\DipoleDeriv=0.1959442,-0.2665709,0.179107,-0.214
 3148,0.2201727,-0.1736496,0.1102842,-0.1460656,0.0568736,-0.0151647,-0
 .005767,-0.06692,-0.0272326,0.0315689,-0.0986731,-0.0216605,-0.108109,
 0.2958525,0.0737814,0.0454903,-0.0550177,0.0175727,-0.0893624,0.059048
 2,-0.0145128,0.0320984,-0.0088906,-0.0593876,0.0313058,-0.0639861,0.04
 17883,0.0054907,0.0704383,-0.0131763,0.0819591,-0.0836893,-0.0592218,0
 .0668254,0.0232431,0.0069982,0.0002278,0.0038374,0.0482809,0.0552656,-
 0.1721659,0.0193317,-0.047479,-0.0904649,0.0091957,-0.0488212,-0.01204
 52,-0.0334374,-0.0278259,0.0661756,-0.0120671,0.0371613,0.0885507,0.05
 84254,-0.0136094,0.1217239,0.0043263,0.0694459,-0.1255666,-0.044758,0.
 0537289,0.0161939,0.0399369,-0.0410487,0.0331218,-0.0790798,0.0053822,
 0.0005402,-0.098458,0.0853052,-0.030706,0.0676301,-0.0646183,-0.003801
 8,-0.0010247,0.0378493,-0.0291295\Polar=380.207288,-7.682459,378.09774
 54,6.1568195,-12.626246,378.0083719\PG=C01 [X(Bi4Ge3Sn2)]\NImag=0\\0.0
 6911173,-0.01627902,0.06004639,0.00912575,-0.01546081,0.04757629,0.000
 46825,0.00131187,-0.00268267,0.04563454,-0.00023114,-0.00202029,0.0005
 9737,0.01003219,0.04226627,0.00087229,-0.00038065,-0.00248078,0.008886
 18,-0.01203542,0.06765383,-0.00419767,-0.00496457,0.00380254,-0.021949
 73,0.00048857,-0.01716551,0.08013392,-0.00518750,-0.02668353,0.0199188
 4,0.00141761,-0.00075087,0.00501473,-0.00405376,0.06627373,0.00422900,
 0.01921859,-0.01247024,-0.01856289,0.00623838,-0.01623997,0.00123735,-
 0.01152573,0.04355320,-0.00675129,0.00222407,-0.01377177,0.00281748,0.
 00371476,-0.00008349,-0.01060962,-0.00867006,-0.00540285,0.05847262,0.
 00257018,-0.00054708,0.00325052,0.00299311,-0.01429108,0.00504436,-0.0
 0708104,-0.01502163,-0.00731216,-0.01227213,0.05045363,-0.01131819,0.0
 0117348,-0.02528561,-0.00211868,0.00618992,-0.00561039,-0.00343022,-0.
 00604649,-0.00096283,0.00956713,0.00847906,0.05184239,0.00057003,0.003
 69936,-0.00078496,-0.00062662,0.00118583,-0.00002852,-0.02396901,0.020
 09466,0.01042080,-0.00231516,0.00327613,0.00088850,0.05435301,-0.00136
 341,-0.00309747,-0.00019933,0.00006070,-0.01201700,-0.01141743,0.01953
 714,-0.02352330,-0.00672986,-0.00058690,-0.00383624,-0.00046051,-0.002
 57732,0.08426182,-0.00050046,0.00147393,0.00057564,-0.00152099,-0.0112
 0499,-0.02322766,0.00903376,-0.00357928,-0.00016376,-0.00221707,-0.006
 32190,-0.00029401,-0.01713014,-0.00080263,0.04535131,-0.00378622,-0.00
 095111,0.00082005,-0.00060316,0.00014108,-0.00114343,-0.00574981,0.003
 09160,0.00297171,0.00129048,0.00007113,0.00004789,-0.02759115,-0.01802
 557,0.01467674,0.08581609,0.00027143,-0.00336913,-0.00020494,-0.002080
 11,0.00011283,0.00151152,-0.00372103,0.00414587,0.00251188,0.00535106,
 -0.00544329,-0.00286107,-0.01671678,-0.01975848,0.01041073,-0.00668827
 ,0.06550111,-0.00142770,0.00117112,-0.00145584,0.00500094,-0.00223392,
 -0.00422767,-0.00059164,-0.00195043,-0.00176065,0.00781941,-0.00102646
 ,-0.00428155,0.01282953,0.01008004,-0.00541445,-0.01163557,0.01162325,
 0.04643716,-0.00303351,-0.00047096,-0.00028724,-0.02271841,-0.01623532
 ,0.00731253,-0.00489886,-0.00116616,-0.00170846,-0.03706149,0.01140467
 ,-0.00266317,-0.00121029,0.00096664,0.00077468,-0.00484214,0.00067855,
 -0.00374251,0.08114818,0.00177082,-0.00111813,0.00109847,-0.01464671,-
 0.01251883,0.00869798,0.00031123,-0.00108713,-0.00351861,0.01343446,-0
 .00460326,0.00028019,-0.00653158,-0.00354948,-0.00466823,0.00236286,-0
 .01086278,-0.01501350,0.00311604,0.04049240,0.00026437,-0.00047231,-0.
 00277689,0.00874567,0.01050816,-0.00725145,0.00198169,0.00041724,0.000
 96803,-0.00173055,-0.00364518,-0.00132862,0.00051620,-0.00007144,-0.00
 151054,0.00019750,-0.01909441,-0.02679513,0.01357841,0.00010863,0.0714
 3291,-0.00737158,0.01400469,0.00538374,-0.00249182,0.00024496,0.001476
 85,-0.00548302,0.00116926,0.00183301,-0.00321199,-0.00078091,0.0039064
 4,0.00197456,0.00212560,-0.00191115,-0.03579006,0.00793108,-0.01126716
 ,0.00152854,-0.00410426,-0.00927766,0.05180568,0.01207486,-0.02407074,
 -0.00992441,0.00056223,0.00294891,0.00406502,0.00011614,0.00234437,0.0
 0139363,-0.00388549,-0.00253205,-0.00502666,0.00411847,-0.01395017,0.0
 0817379,0.00783430,-0.00130532,0.00062810,-0.00044792,-0.00272412,-0.0
 0093072,-0.01618924,0.04581367,0.00265677,-0.00838526,-0.00488638,-0.0
 0317224,-0.00314842,-0.00573554,0.00325953,-0.00159072,-0.00870789,-0.
 00078929,-0.00103564,-0.00573045,-0.00355129,0.01005295,-0.01417968,-0
 .01079854,-0.00179807,-0.00509084,-0.00024218,0.00085673,-0.00548694,0
 .01386587,0.00390872,0.05503818,-0.04500973,0.00142567,-0.00160544,-0.
 00053052,0.00065909,-0.00012691,-0.00327620,-0.00669564,0.00498233,-0.
 00263102,-0.00018113,0.00512029,-0.00118537,-0.00013688,-0.00120537,-0
 .00874402,0.01497407,0.00301469,-0.00891203,0.00428714,-0.01427565,-0.
 00096031,-0.00418337,-0.00122864,0.07124920,0.00637378,0.00086000,0.00
 092429,0.00034911,-0.00372992,-0.00050012,-0.00063267,-0.00569750,-0.0
 0027613,0.00069023,-0.00417898,-0.00172792,-0.00654877,-0.00452969,0.0
 0651859,0.01216397,-0.02902080,-0.00327820,0.00215448,-0.00402866,0.01
 318004,-0.00440119,-0.00652455,0.00113973,-0.01014893,0.05685011,-0.00
 390184,0.00166192,0.00120380,0.00542468,0.00508892,-0.00288036,0.00187
 249,-0.00065817,-0.00421588,0.00660847,0.00256740,-0.00834893,-0.00316
 013,-0.00045178,-0.00113684,0.00486365,-0.00209889,0.00258897,-0.01302
 207,0.01215834,-0.02725137,-0.00400994,-0.00228747,-0.00522047,0.00532
 470,-0.01598027,0.04526110\\0.00003092,0.00001898,-0.00005318,0.000007
 70,-0.00000200,0.00000052,-0.00000451,0.00001445,-0.00001822,0.0000016
 4,-0.00004724,-0.00002692,0.00000324,0.00005270,-0.00000665,-0.0000054
 1,0.00000702,-0.00001242,-0.00000687,0.00000259,-0.00000953,-0.0000283
 2,-0.00005807,0.00005913,0.00000161,0.00001157,0.00006728\\\@


 BULLDOZER: SOMEONE WHO SLEEPS THROUGH SPEECHES.
 Job cpu time:       0 days  4 hours 33 minutes 55.2 seconds.
 File lengths (MBytes):  RWF=    299 Int=      0 D2E=      0 Chk=     16 Scr=      1
 Normal termination of Gaussian 09 at Tue Mar  6 15:54:25 2018.
