 Entering Gaussian System, Link 0=/share/apps/mg09/g09
 Initial command:
 /share/apps//mg09/l1.exe "/state/partition1/gauss_tmp/Gau-17190.inp" -scrdir="/state/partition1/gauss_tmp/"
 Entering Link 1 = /share/apps//mg09/l1.exe PID=     17192.
  
 Copyright (c) 1988,1990,1992,1993,1995,1998,2003,2009,2013,
            Gaussian, Inc.  All Rights Reserved.
  
 This is part of the Gaussian(R) 09 program.  It is based on
 the Gaussian(R) 03 system (copyright 2003, Gaussian, Inc.),
 the Gaussian(R) 98 system (copyright 1998, Gaussian, Inc.),
 the Gaussian(R) 94 system (copyright 1995, Gaussian, Inc.),
 the Gaussian 92(TM) system (copyright 1992, Gaussian, Inc.),
 the Gaussian 90(TM) system (copyright 1990, Gaussian, Inc.),
 the Gaussian 88(TM) system (copyright 1988, Gaussian, Inc.),
 the Gaussian 86(TM) system (copyright 1986, Carnegie Mellon
 University), and the Gaussian 82(TM) system (copyright 1983,
 Carnegie Mellon University). Gaussian is a federally registered
 trademark of Gaussian, Inc.
  
 This software contains proprietary and confidential information,
 including trade secrets, belonging to Gaussian, Inc.
  
 This software is provided under written license and may be
 used, copied, transmitted, or stored only in accord with that
 written license.
  
 The following legend is applicable only to US Government
 contracts under FAR:
  
                    RESTRICTED RIGHTS LEGEND
  
 Use, reproduction and disclosure by the US Government is
 subject to restrictions as set forth in subparagraphs (a)
 and (c) of the Commercial Computer Software - Restricted
 Rights clause in FAR 52.227-19.
  
 Gaussian, Inc.
 340 Quinnipiac St., Bldg. 40, Wallingford CT 06492
  
  
 ---------------------------------------------------------------
 Warning -- This program may not be used in any manner that
 competes with the business of Gaussian, Inc. or will provide
 assistance to any competitor of Gaussian, Inc.  The licensee
 of this program is prohibited from giving any competitor of
 Gaussian, Inc. access to this program.  By using this program,
 the user acknowledges that Gaussian, Inc. is engaged in the
 business of creating and licensing software in the field of
 computational chemistry and represents and warrants to the
 licensee that it is not a competitor of Gaussian, Inc. and that
 it will not use this program in any manner prohibited above.
 ---------------------------------------------------------------
  

 Cite this work as:
 Gaussian 09, Revision D.01,
 M. J. Frisch, G. W. Trucks, H. B. Schlegel, G. E. Scuseria, 
 M. A. Robb, J. R. Cheeseman, G. Scalmani, V. Barone, B. Mennucci, 
 G. A. Petersson, H. Nakatsuji, M. Caricato, X. Li, H. P. Hratchian, 
 A. F. Izmaylov, J. Bloino, G. Zheng, J. L. Sonnenberg, M. Hada, 
 M. Ehara, K. Toyota, R. Fukuda, J. Hasegawa, M. Ishida, T. Nakajima, 
 Y. Honda, O. Kitao, H. Nakai, T. Vreven, J. A. Montgomery, Jr., 
 J. E. Peralta, F. Ogliaro, M. Bearpark, J. J. Heyd, E. Brothers, 
 K. N. Kudin, V. N. Staroverov, T. Keith, R. Kobayashi, J. Normand, 
 K. Raghavachari, A. Rendell, J. C. Burant, S. S. Iyengar, J. Tomasi, 
 M. Cossi, N. Rega, J. M. Millam, M. Klene, J. E. Knox, J. B. Cross, 
 V. Bakken, C. Adamo, J. Jaramillo, R. Gomperts, R. E. Stratmann, 
 O. Yazyev, A. J. Austin, R. Cammi, C. Pomelli, J. W. Ochterski, 
 R. L. Martin, K. Morokuma, V. G. Zakrzewski, G. A. Voth, 
 P. Salvador, J. J. Dannenberg, S. Dapprich, A. D. Daniels, 
 O. Farkas, J. B. Foresman, J. V. Ortiz, J. Cioslowski, 
 and D. J. Fox, Gaussian, Inc., Wallingford CT, 2013.
 
 ******************************************
 Gaussian 09:  ES64L-G09RevD.01 24-Apr-2013
                 8-Mar-2018 
 ******************************************
 %NProcShared=4
 Will use up to    4 processors via shared memory.
 %LindaWorkers=compute-0-0
 %chk=Isomer_08.chk
 %NProc=4
 Will use up to    4 processors via shared memory.
 %mem=4GB
 SetLPE:  input flags=" -vv -opt "Tsnet.Node.lindarsharg: ssh" "
 SetLPE:    new flags=" -vv -opt "Tsnet.Node.lindarsharg: ssh"  -nodelist 'compute-0-0.local'"
 Will use up to    1 processors via Linda.
 ----------------------------------------------------------------------
 #p PBE1PBE/Def2TZVP scf=(maxcycle=768) opt=(cartesian,maxcycle=512) fr
 eq
 ----------------------------------------------------------------------
 1/6=512,10=7,14=-1,18=10,26=3,38=1/1,3;
 2/12=2,17=6,18=5,29=2,40=1/2;
 3/5=44,7=101,11=2,16=1,25=1,30=1,71=1,74=-13/1,2,3;
 4//1;
 5/5=2,7=768,38=5/2;
 6/7=2,8=2,9=2,10=2,28=1/1;
 7/7=1,29=1/1,2,3,16;
 1/6=512,10=7,14=-1,18=10,26=3/3(2);
 2/29=1/2;
 99/12=1/99;
 2/29=1/2;
 3/5=44,7=101,11=2,16=1,25=1,30=1,71=1,74=-13/1,2,3;
 4/5=5,16=3,69=1/1;
 5/5=2,7=768,38=5/2;
 7/7=1/1,2,3,16;
 1/6=512,14=-1,18=10,26=3/3(-5);
 2/29=1/2;
 6/7=2,8=2,9=2,10=2,19=2,28=1/1;
 99/9=1,12=1/99;
 Leave Link    1 at Thu Mar  8 11:09:28 2018, MaxMem=   536870912 cpu:         0.3
 (Enter /share/apps//mg09/l101.exe)
 ---------------------
 01Final_coords.xyz_08
 ---------------------
 Symbolic Z-matrix:
 Charge =  0 Multiplicity = 1
 83                    2.64607  -0.79252  -0.62046 
 32                    0.85562   0.8617   -2.13902 
 83                   -0.78017   2.35868  -0.24971 
 32                    0.25412  -2.17505  -1.25602 
 83                   -1.82264  -0.15435  -1.597 
 83                   -1.5611   -1.80156   0.95801 
 32                    1.17347  -1.35448   1.80498 
 50                   -0.80023   0.78101   2.43523 
 50                    1.85861   1.57339   1.08762 
 
 NAtoms=      9 NQM=        9 NQMF=       0 NMMI=      0 NMMIF=      0
                NMic=       0 NMicF=      0.
                    Isotopes and Nuclear Properties:
 (Nuclear quadrupole moments (NQMom) in fm**2, nuclear magnetic moments (NMagM)
  in nuclear magnetons)

  Atom         1           2           3           4           5           6           7           8           9
 IAtWgt=         209          74         209          74         209         209          74         118         118
 AtmWgt= 208.9804000  73.9211788 208.9804000  73.9211788 208.9804000 208.9804000  73.9211788 117.9018000 117.9018000
 NucSpn=           9           0           9           0           9           9           0           0           0
 AtZEff=   0.0000000   0.0000000   0.0000000   0.0000000   0.0000000   0.0000000   0.0000000   0.0000000   0.0000000
 NQMom=  -51.6000000   0.0000000 -51.6000000   0.0000000 -51.6000000 -51.6000000   0.0000000   0.0000000   0.0000000
 NMagM=    4.1106000   0.0000000   4.1106000   0.0000000   4.1106000   4.1106000   0.0000000   0.0000000   0.0000000
 AtZNuc=  83.0000000  32.0000000  83.0000000  32.0000000  83.0000000  83.0000000  32.0000000  50.0000000  50.0000000
 Leave Link  101 at Thu Mar  8 11:09:28 2018, MaxMem=   536870912 cpu:         0.2
 (Enter /share/apps//mg09/l103.exe)

 GradGradGradGradGradGradGradGradGradGradGradGradGradGradGradGradGradGrad
 Berny optimization.
 Initialization pass.
 No Z-matrix variables, so optimization will use Cartesian coordinates.
 Trust Radius=3.00D-01 FncErr=1.00D-07 GrdErr=1.00D-06
 Number of steps in this run=    100 maximum allowed number of steps=    100.
 GradGradGradGradGradGradGradGradGradGradGradGradGradGradGradGradGradGrad

 Leave Link  103 at Thu Mar  8 11:09:28 2018, MaxMem=   536870912 cpu:         0.1
 (Enter /share/apps//mg09/l202.exe)
 ---------------------------------------------------------------------------------------------------
                            Z-MATRIX (ANGSTROMS AND DEGREES)
   CD    Cent   Atom    N1       Length/X        N2       Alpha/Y        N3        Beta/Z          J
 ---------------------------------------------------------------------------------------------------
      1      1  Bi       0   2.646065         -0.792522         -0.620459
      2      2  Ge       0   0.855619          0.861700         -2.139021
      3      3  Bi       0  -0.780173          2.358682         -0.249712
      4      4  Ge       0   0.254123         -2.175049         -1.256021
      5      5  Bi       0  -1.822642         -0.154351         -1.597001
      6      6  Bi       0  -1.561101         -1.801560          0.958009
      7      7  Ge       0   1.173467         -1.354478          1.804978
      8      8  Sn       0  -0.800231          0.781005          2.435232
      9      9  Sn       0   1.858609          1.573390          1.087621
 ---------------------------------------------------------------------------------------------------
                         Z-Matrix orientation:                         
 ---------------------------------------------------------------------
 Center     Atomic      Atomic             Coordinates (Angstroms)
 Number     Number       Type             X           Y           Z
 ---------------------------------------------------------------------
      1         83           0        2.646065   -0.792522   -0.620459
      2         32           0        0.855619    0.861700   -2.139021
      3         83           0       -0.780173    2.358682   -0.249712
      4         32           0        0.254123   -2.175049   -1.256021
      5         83           0       -1.822642   -0.154351   -1.597001
      6         83           0       -1.561101   -1.801560    0.958009
      7         32           0        1.173467   -1.354478    1.804978
      8         50           0       -0.800231    0.781005    2.435232
      9         50           0        1.858609    1.573390    1.087621
 ---------------------------------------------------------------------
                    Distance matrix (angstroms):
                    1          2          3          4          5
     1  Bi   0.000000
     2  Ge   2.871964   0.000000
     3  Bi   4.669759   2.913118   0.000000
     4  Ge   2.834909   3.219213   4.757851   0.000000
     5  Bi   4.618467   2.915343   3.035995   2.917609   0.000000
     6  Bi   4.605428   4.746060   4.401824   2.887293   3.051193
     7  Ge   2.892591   4.535152   4.671832   3.299734   4.689396
     8  Sn   4.867257   4.865402   3.114224   4.845128   4.263698
     9  Sn   3.022443   3.453073   3.060770   4.702960   4.872771
                    6          7          8          9
     6  Bi   0.000000
     7  Ge   2.897430   0.000000
     8  Sn   3.070953   2.975398   0.000000
     9  Sn   4.806402   3.091348   3.084373   0.000000
 Stoichiometry    Bi4Ge3Sn2
 Framework group  C1[X(Bi4Ge3Sn2)]
 Deg. of freedom    21
 Full point group                 C1      NOp   1
 Largest Abelian subgroup         C1      NOp   1
 Largest concise Abelian subgroup C1      NOp   1
                         Standard orientation:                         
 ---------------------------------------------------------------------
 Center     Atomic      Atomic             Coordinates (Angstroms)
 Number     Number       Type             X           Y           Z
 ---------------------------------------------------------------------
      1         83           0        2.646065   -0.792521   -0.620459
      2         32           0        0.855619    0.861700   -2.139021
      3         83           0       -0.780174    2.358682   -0.249712
      4         32           0        0.254124   -2.175049   -1.256021
      5         83           0       -1.822642   -0.154352   -1.597001
      6         83           0       -1.561100   -1.801560    0.958009
      7         32           0        1.173468   -1.354478    1.804978
      8         50           0       -0.800231    0.781005    2.435232
      9         50           0        1.858609    1.573391    1.087621
 ---------------------------------------------------------------------
 Rotational constants (GHZ):      0.0965687      0.0873024      0.0799806
 Leave Link  202 at Thu Mar  8 11:09:28 2018, MaxMem=   536870912 cpu:         0.0
 (Enter /share/apps//mg09/l301.exe)
 Standard basis: def2TZVP (5D, 7F)
 Ernie: Thresh=  0.10000D-02 Tol=  0.10000D-05 Strict=F.
 There are   519 symmetry adapted cartesian basis functions of A   symmetry.
 There are   444 symmetry adapted basis functions of A   symmetry.
   444 basis functions,   963 primitive gaussians,   519 cartesian basis functions
   116 alpha electrons      116 beta electrons
       nuclear repulsion energy      3536.0372973246 Hartrees.
 IExCor= 1009 DFT=T Ex+Corr=PBE1PBE ExCW=0 ScaHFX=  0.250000
 ScaDFX=  0.750000  0.750000  1.000000  1.000000 ScalE2=  1.000000  1.000000
 IRadAn=      0 IRanWt=     -1 IRanGd=            0 ICorTp=0 IEmpDi=  4
 NAtoms=    9 NActive=    9 NUniq=    9 SFac= 1.00D+00 NAtFMM=   60 NAOKFM=F Big=F
 Integral buffers will be    131072 words long.
 Raffenetti 2 integral format.
 Two-electron integral symmetry is turned on.
 Leave Link  301 at Thu Mar  8 11:09:28 2018, MaxMem=   536870912 cpu:         0.2
 (Enter /share/apps//mg09/l302.exe)
 NPDir=0 NMtPBC=     1 NCelOv=     1 NCel=       1 NClECP=     1 NCelD=      1
         NCelK=      1 NCelE2=     1 NClLst=     1 CellRange=     0.0.
 One-electron integrals computed using PRISM.
   1 Symmetry operations used in ECPInt.
 ECPInt:  NShTT=   10440 NPrTT=   41973 LenC2=    9682 LenP2D=   27434.
 LDataN:  DoStor=T MaxTD1= 8 Len=  415
 NBasis=   444 RedAO= T EigKep=  1.44D-03  NBF=   444
 NBsUse=   444 1.00D-06 EigRej= -1.00D+00 NBFU=   444
 Precomputing XC quadrature grid using
 IXCGrd= 4 IRadAn=           0 IRanWt=          -1 IRanGd=           0 AccXCQ= 0.00D+00.
 Defaulting to unpruned grid for atomic number  83.
 Defaulting to unpruned grid for atomic number  83.
 Defaulting to unpruned grid for atomic number  50.
 Generated NRdTot=       0 NPtTot=           0 NUsed=           0 NTot=          32
 NSgBfM=   499   502   502   502   502 MxSgAt=     9 MxSgA2=     9.
 Leave Link  302 at Thu Mar  8 11:09:40 2018, MaxMem=   536870912 cpu:        37.8
 (Enter /share/apps//mg09/l303.exe)
 DipDrv:  MaxL=1.
 Leave Link  303 at Thu Mar  8 11:09:40 2018, MaxMem=   536870912 cpu:         0.3
 (Enter /share/apps//mg09/l401.exe)
 ExpMin= 4.62D-02 ExpMax= 4.66D+05 ExpMxC= 4.50D+03 IAcc=2 IRadAn=         4 AccDes= 0.00D+00
 Harris functional with IExCor= 1009 and IRadAn=       4 diagonalized for initial guess.
 HarFok:  IExCor= 1009 AccDes= 0.00D+00 IRadAn=         4 IDoV= 1 UseB2=F ITyADJ=14
 ICtDFT=  3500011 ScaDFX=  1.000000  1.000000  1.000000  1.000000
 Defaulting to unpruned grid for atomic number  83.
 Defaulting to unpruned grid for atomic number  83.
 Defaulting to unpruned grid for atomic number  83.
 Defaulting to unpruned grid for atomic number  83.
 FoFCou: FMM=F IPFlag=           0 FMFlag=      100000 FMFlg1=           0
         NFxFlg=           0 DoJE=T BraDBF=F KetDBF=T FulRan=T
         wScrn=  0.000000 ICntrl=     500 IOpCl=  0 I1Cent=   200000004 NGrid=           0
         NMat0=    1 NMatS0=      1 NMatT0=    0 NMatD0=    1 NMtDS0=    0 NMtDT0=    0
 Petite list used in FoFCou.
 Harris En= -7518.59757802189    
 JPrj=0 DoOrth=F DoCkMO=F.
 Leave Link  401 at Thu Mar  8 11:09:44 2018, MaxMem=   536870912 cpu:        12.3
 (Enter /share/apps//mg09/l502.exe)
 Closed shell SCF:
 Using DIIS extrapolation, IDIIS=  1040.
 Integral symmetry usage will be decided dynamically.
 IVT=     1410107 IEndB=     1410107 NGot=   536870912 MDV=   536322046
 LenX=   536322046 LenY=   536052166
 Requested convergence on RMS density matrix=1.00D-08 within 768 cycles.
 Requested convergence on MAX density matrix=1.00D-06.
 Requested convergence on             energy=1.00D-06.
 No special actions if energy rises.
 Fock matrices will be formed incrementally for  20 cycles.

 Cycle   1  Pass 1  IDiag  1:
 FoFJK:  IHMeth= 1 ICntrl=       0 DoSepK=F KAlg= 0 I1Cent=   0 FoldK=F
 IRaf= 870000000 NMat=   1 IRICut=       1 DoRegI=T DoRafI=F ISym2E= 0.
 FoFCou: FMM=F IPFlag=           0 FMFlag=      100000 FMFlg1=           0
         NFxFlg=           0 DoJE=F BraDBF=F KetDBF=F FulRan=T
         wScrn=  0.000000 ICntrl=       0 IOpCl=  0 I1Cent=           0 NGrid=           0
         NMat0=    1 NMatS0=      1 NMatT0=    0 NMatD0=    1 NMtDS0=    0 NMtDT0=    0
 Symmetry not used in FoFCou.
 Defaulting to unpruned grid for atomic number  83.
 Defaulting to unpruned grid for atomic number  83.
 Defaulting to unpruned grid for atomic number  83.
 Defaulting to unpruned grid for atomic number  83.
 E= -7517.28091476066    
 DIIS: error= 2.48D-02 at cycle   1 NSaved=   1.
 NSaved= 1 IEnMin= 1 EnMin= -7517.28091476066     IErMin= 1 ErrMin= 2.48D-02
 ErrMax= 2.48D-02  0.00D+00 EMaxC= 1.00D-01 BMatC= 1.45D+00 BMatP= 1.45D+00
 IDIUse=3 WtCom= 7.52D-01 WtEn= 2.48D-01
 Coeff-Com:  0.100D+01
 Coeff-En:   0.100D+01
 Coeff:      0.100D+01
 Gap=     0.120 Goal=   None    Shift=    0.000
 GapD=    0.120 DampG=1.000 DampE=0.500 DampFc=0.5000 IDamp=-1.
 Damping current iteration by 5.00D-01
 RMSDP=4.58D-03 MaxDP=1.94D-01              OVMax= 3.86D-01

 Cycle   2  Pass 1  IDiag  1:
 RMSU=  2.29D-03    CP:  1.00D+00
 E= -7517.39007400175     Delta-E=       -0.109159241087 Rises=F Damp=T
 DIIS: error= 7.55D-03 at cycle   2 NSaved=   2.
 NSaved= 2 IEnMin= 2 EnMin= -7517.39007400175     IErMin= 2 ErrMin= 7.55D-03
 ErrMax= 7.55D-03  0.00D+00 EMaxC= 1.00D-01 BMatC= 1.66D-01 BMatP= 1.45D+00
 IDIUse=3 WtCom= 9.25D-01 WtEn= 7.55D-02
 Coeff-Com:  0.585D-01 0.942D+00
 Coeff-En:   0.394D+00 0.606D+00
 Coeff:      0.838D-01 0.916D+00
 Gap=     0.199 Goal=   None    Shift=    0.000
 RMSDP=2.51D-03 MaxDP=1.53D-01 DE=-1.09D-01 OVMax= 4.03D-01

 Cycle   3  Pass 1  IDiag  1:
 RMSU=  2.08D-03    CP:  1.01D+00  3.90D-01
 E= -7517.10271029685     Delta-E=        0.287363704898 Rises=F Damp=F
 DIIS: error= 2.05D-02 at cycle   3 NSaved=   3.
 NSaved= 3 IEnMin= 2 EnMin= -7517.39007400175     IErMin= 2 ErrMin= 7.55D-03
 ErrMax= 2.05D-02  0.00D+00 EMaxC= 1.00D-01 BMatC= 6.00D-01 BMatP= 1.66D-01
 IDIUse=2 WtCom= 0.00D+00 WtEn= 1.00D+00
 EnCoef did     4 forward-backward iterations
 Coeff-En:   0.385D-01 0.624D+00 0.338D+00
 Coeff:      0.385D-01 0.624D+00 0.338D+00
 Gap=     0.169 Goal=   None    Shift=    0.000
 RMSDP=2.68D-03 MaxDP=1.22D-01 DE= 2.87D-01 OVMax= 3.17D-01

 Cycle   4  Pass 1  IDiag  1:
 RMSU=  8.88D-04    CP:  1.00D+00  9.86D-01 -1.86D-02
 E= -7517.65130602078     Delta-E=       -0.548595723931 Rises=F Damp=F
 DIIS: error= 8.35D-03 at cycle   4 NSaved=   4.
 NSaved= 4 IEnMin= 4 EnMin= -7517.65130602078     IErMin= 2 ErrMin= 7.55D-03
 ErrMax= 8.35D-03  0.00D+00 EMaxC= 1.00D-01 BMatC= 1.20D-01 BMatP= 1.66D-01
 IDIUse=3 WtCom= 9.16D-01 WtEn= 8.35D-02
 Coeff-Com: -0.558D-02 0.264D+00 0.283D+00 0.459D+00
 Coeff-En:   0.000D+00 0.000D+00 0.262D+00 0.738D+00
 Coeff:     -0.511D-02 0.242D+00 0.281D+00 0.482D+00
 Gap=     0.135 Goal=   None    Shift=    0.000
 RMSDP=1.25D-03 MaxDP=6.11D-02 DE=-5.49D-01 OVMax= 1.40D-01

 Cycle   5  Pass 1  IDiag  1:
 RMSU=  6.37D-04    CP:  1.00D+00  7.71D-01  3.47D-01  3.45D-01
 E= -7517.78862169421     Delta-E=       -0.137315673426 Rises=F Damp=F
 DIIS: error= 3.09D-03 at cycle   5 NSaved=   5.
 NSaved= 5 IEnMin= 5 EnMin= -7517.78862169421     IErMin= 5 ErrMin= 3.09D-03
 ErrMax= 3.09D-03  0.00D+00 EMaxC= 1.00D-01 BMatC= 2.42D-02 BMatP= 1.20D-01
 IDIUse=3 WtCom= 9.69D-01 WtEn= 3.09D-02
 Coeff-Com:  0.616D-02-0.187D-01 0.106D+00 0.381D+00 0.525D+00
 Coeff-En:   0.000D+00 0.000D+00 0.000D+00 0.199D+00 0.801D+00
 Coeff:      0.597D-02-0.181D-01 0.103D+00 0.375D+00 0.534D+00
 Gap=     0.123 Goal=   None    Shift=    0.000
 RMSDP=4.30D-04 MaxDP=1.96D-02 DE=-1.37D-01 OVMax= 4.96D-02

 Cycle   6  Pass 1  IDiag  1:
 RMSU=  1.46D-04    CP:  1.00D+00  7.73D-01  2.48D-01  6.18D-01  6.13D-01
 E= -7517.81423030964     Delta-E=       -0.025608615431 Rises=F Damp=F
 DIIS: error= 7.58D-04 at cycle   6 NSaved=   6.
 NSaved= 6 IEnMin= 6 EnMin= -7517.81423030964     IErMin= 6 ErrMin= 7.58D-04
 ErrMax= 7.58D-04  0.00D+00 EMaxC= 1.00D-01 BMatC= 1.23D-03 BMatP= 2.42D-02
 IDIUse=3 WtCom= 9.92D-01 WtEn= 7.58D-03
 Coeff-Com:  0.465D-02-0.217D-01 0.807D-02 0.866D-01 0.244D+00 0.678D+00
 Coeff-En:   0.000D+00 0.000D+00 0.000D+00 0.000D+00 0.162D-01 0.984D+00
 Coeff:      0.461D-02-0.215D-01 0.801D-02 0.859D-01 0.242D+00 0.681D+00
 Gap=     0.123 Goal=   None    Shift=    0.000
 RMSDP=1.26D-04 MaxDP=5.36D-03 DE=-2.56D-02 OVMax= 1.42D-02

 Cycle   7  Pass 1  IDiag  1:
 RMSU=  8.79D-05    CP:  1.00D+00  7.79D-01  2.67D-01  6.01D-01  6.98D-01
                    CP:  6.04D-01
 E= -7517.81470000929     Delta-E=       -0.000469699655 Rises=F Damp=F
 DIIS: error= 5.70D-04 at cycle   7 NSaved=   7.
 NSaved= 7 IEnMin= 7 EnMin= -7517.81470000929     IErMin= 7 ErrMin= 5.70D-04
 ErrMax= 5.70D-04  0.00D+00 EMaxC= 1.00D-01 BMatC= 4.78D-04 BMatP= 1.23D-03
 IDIUse=3 WtCom= 9.94D-01 WtEn= 5.70D-03
 Coeff-Com:  0.320D-02-0.129D-01-0.122D-02 0.371D-01 0.135D+00 0.480D+00
 Coeff-Com:  0.359D+00
 Coeff-En:   0.000D+00 0.000D+00 0.000D+00 0.000D+00 0.000D+00 0.373D+00
 Coeff-En:   0.627D+00
 Coeff:      0.318D-02-0.128D-01-0.121D-02 0.369D-01 0.134D+00 0.479D+00
 Coeff:      0.360D+00
 Gap=     0.123 Goal=   None    Shift=    0.000
 RMSDP=7.80D-05 MaxDP=3.04D-03 DE=-4.70D-04 OVMax= 9.97D-03

 Cycle   8  Pass 1  IDiag  1:
 RMSU=  4.10D-05    CP:  1.00D+00  7.80D-01  2.67D-01  6.01D-01  6.95D-01
                    CP:  8.15D-01  3.32D-01
 E= -7517.81517428823     Delta-E=       -0.000474278933 Rises=F Damp=F
 DIIS: error= 3.05D-04 at cycle   8 NSaved=   8.
 NSaved= 8 IEnMin= 8 EnMin= -7517.81517428823     IErMin= 8 ErrMin= 3.05D-04
 ErrMax= 3.05D-04  0.00D+00 EMaxC= 1.00D-01 BMatC= 1.05D-04 BMatP= 4.78D-04
 IDIUse=3 WtCom= 9.97D-01 WtEn= 3.05D-03
 Coeff-Com:  0.146D-02-0.450D-02-0.313D-02 0.827D-02 0.451D-01 0.219D+00
 Coeff-Com:  0.299D+00 0.435D+00
 Coeff-En:   0.000D+00 0.000D+00 0.000D+00 0.000D+00 0.000D+00 0.000D+00
 Coeff-En:   0.241D+00 0.759D+00
 Coeff:      0.146D-02-0.449D-02-0.312D-02 0.824D-02 0.450D-01 0.218D+00
 Coeff:      0.299D+00 0.436D+00
 Gap=     0.122 Goal=   None    Shift=    0.000
 RMSDP=3.21D-05 MaxDP=1.32D-03 DE=-4.74D-04 OVMax= 4.18D-03

 Cycle   9  Pass 1  IDiag  1:
 RMSU=  1.45D-05    CP:  1.00D+00  7.79D-01  2.63D-01  6.01D-01  6.98D-01
                    CP:  8.03D-01  5.14D-01  4.57D-01
 E= -7517.81529991393     Delta-E=       -0.000125625704 Rises=F Damp=F
 DIIS: error= 6.36D-05 at cycle   9 NSaved=   9.
 NSaved= 9 IEnMin= 9 EnMin= -7517.81529991393     IErMin= 9 ErrMin= 6.36D-05
 ErrMax= 6.36D-05  0.00D+00 EMaxC= 1.00D-01 BMatC= 1.09D-05 BMatP= 1.05D-04
 IDIUse=1 WtCom= 1.00D+00 WtEn= 0.00D+00
 Coeff-Com:  0.634D-03-0.135D-02-0.229D-02-0.435D-03 0.102D-01 0.839D-01
 Coeff-Com:  0.157D+00 0.301D+00 0.452D+00
 Coeff:      0.634D-03-0.135D-02-0.229D-02-0.435D-03 0.102D-01 0.839D-01
 Coeff:      0.157D+00 0.301D+00 0.452D+00
 Gap=     0.123 Goal=   None    Shift=    0.000
 RMSDP=9.39D-06 MaxDP=5.96D-04 DE=-1.26D-04 OVMax= 1.03D-03

 Cycle  10  Pass 1  IDiag  1:
 RMSU=  4.20D-06    CP:  1.00D+00  7.78D-01  2.63D-01  6.02D-01  7.00D-01
                    CP:  8.02D-01  5.21D-01  5.98D-01  6.16D-01
 E= -7517.81531129486     Delta-E=       -0.000011380929 Rises=F Damp=F
 DIIS: error= 1.40D-05 at cycle  10 NSaved=  10.
 NSaved=10 IEnMin=10 EnMin= -7517.81531129486     IErMin=10 ErrMin= 1.40D-05
 ErrMax= 1.40D-05  0.00D+00 EMaxC= 1.00D-01 BMatC= 3.27D-07 BMatP= 1.09D-05
 IDIUse=1 WtCom= 1.00D+00 WtEn= 0.00D+00
 Coeff-Com:  0.160D-03-0.330D-03-0.543D-03-0.803D-03-0.739D-03 0.144D-01
 Coeff-Com:  0.363D-01 0.801D-01 0.191D+00 0.680D+00
 Coeff:      0.160D-03-0.330D-03-0.543D-03-0.803D-03-0.739D-03 0.144D-01
 Coeff:      0.363D-01 0.801D-01 0.191D+00 0.680D+00
 Gap=     0.123 Goal=   None    Shift=    0.000
 RMSDP=1.94D-06 MaxDP=7.84D-05 DE=-1.14D-05 OVMax= 2.20D-04

 Cycle  11  Pass 1  IDiag  1:
 RMSU=  1.36D-06    CP:  1.00D+00  7.78D-01  2.63D-01  6.02D-01  7.01D-01
                    CP:  8.06D-01  5.28D-01  6.02D-01  6.81D-01  9.22D-01
 E= -7517.81531157602     Delta-E=       -0.000000281165 Rises=F Damp=F
 DIIS: error= 6.16D-06 at cycle  11 NSaved=  11.
 NSaved=11 IEnMin=11 EnMin= -7517.81531157602     IErMin=11 ErrMin= 6.16D-06
 ErrMax= 6.16D-06  0.00D+00 EMaxC= 1.00D-01 BMatC= 7.67D-08 BMatP= 3.27D-07
 IDIUse=1 WtCom= 1.00D+00 WtEn= 0.00D+00
 Coeff-Com:  0.214D-04-0.509D-04 0.294D-04-0.507D-03-0.227D-02-0.337D-02
 Coeff-Com: -0.116D-02 0.393D-02 0.509D-01 0.391D+00 0.562D+00
 Coeff:      0.214D-04-0.509D-04 0.294D-04-0.507D-03-0.227D-02-0.337D-02
 Coeff:     -0.116D-02 0.393D-02 0.509D-01 0.391D+00 0.562D+00
 Gap=     0.123 Goal=   None    Shift=    0.000
 RMSDP=1.09D-06 MaxDP=5.70D-05 DE=-2.81D-07 OVMax= 1.25D-04

 Cycle  12  Pass 1  IDiag  1:
 RMSU=  7.67D-07    CP:  1.00D+00  7.78D-01  2.63D-01  6.02D-01  7.01D-01
                    CP:  8.08D-01  5.30D-01  6.08D-01  6.94D-01  1.00D+00
                    CP:  6.93D-01
 E= -7517.81531161809     Delta-E=       -0.000000042070 Rises=F Damp=F
 DIIS: error= 5.01D-06 at cycle  12 NSaved=  12.
 NSaved=12 IEnMin=12 EnMin= -7517.81531161809     IErMin=12 ErrMin= 5.01D-06
 ErrMax= 5.01D-06  0.00D+00 EMaxC= 1.00D-01 BMatC= 3.07D-08 BMatP= 7.67D-08
 IDIUse=1 WtCom= 1.00D+00 WtEn= 0.00D+00
 Coeff-Com: -0.364D-05 0.119D-05 0.107D-03-0.304D-03-0.170D-02-0.452D-02
 Coeff-Com: -0.618D-02-0.915D-02 0.101D-01 0.199D+00 0.438D+00 0.375D+00
 Coeff:     -0.364D-05 0.119D-05 0.107D-03-0.304D-03-0.170D-02-0.452D-02
 Coeff:     -0.618D-02-0.915D-02 0.101D-01 0.199D+00 0.438D+00 0.375D+00
 Gap=     0.123 Goal=   None    Shift=    0.000
 RMSDP=6.43D-07 MaxDP=2.49D-05 DE=-4.21D-08 OVMax= 8.89D-05

 Cycle  13  Pass 1  IDiag  1:
 RMSU=  3.76D-07    CP:  1.00D+00  7.78D-01  2.63D-01  6.02D-01  7.01D-01
                    CP:  8.09D-01  5.31D-01  6.09D-01  7.02D-01  1.01D+00
                    CP:  8.29D-01  4.22D-01
 E= -7517.81531165332     Delta-E=       -0.000000035228 Rises=F Damp=F
 DIIS: error= 2.24D-06 at cycle  13 NSaved=  13.
 NSaved=13 IEnMin=13 EnMin= -7517.81531165332     IErMin=13 ErrMin= 2.24D-06
 ErrMax= 2.24D-06  0.00D+00 EMaxC= 1.00D-01 BMatC= 5.94D-09 BMatP= 3.07D-08
 IDIUse=1 WtCom= 1.00D+00 WtEn= 0.00D+00
 Coeff-Com: -0.513D-05 0.871D-05 0.767D-04-0.130D-03-0.834D-03-0.284D-02
 Coeff-Com: -0.479D-02-0.852D-02-0.420D-02 0.641D-01 0.209D+00 0.318D+00
 Coeff-Com:  0.431D+00
 Coeff:     -0.513D-05 0.871D-05 0.767D-04-0.130D-03-0.834D-03-0.284D-02
 Coeff:     -0.479D-02-0.852D-02-0.420D-02 0.641D-01 0.209D+00 0.318D+00
 Coeff:      0.431D+00
 Gap=     0.123 Goal=   None    Shift=    0.000
 RMSDP=2.39D-07 MaxDP=1.66D-05 DE=-3.52D-08 OVMax= 2.89D-05

 Cycle  14  Pass 1  IDiag  1:
 RMSU=  1.20D-07    CP:  1.00D+00  7.78D-01  2.63D-01  6.02D-01  7.01D-01
                    CP:  8.09D-01  5.31D-01  6.10D-01  7.04D-01  1.02D+00
                    CP:  8.43D-01  5.63D-01  6.36D-01
 E= -7517.81531166140     Delta-E=       -0.000000008074 Rises=F Damp=F
 DIIS: error= 3.85D-07 at cycle  14 NSaved=  14.
 NSaved=14 IEnMin=14 EnMin= -7517.81531166140     IErMin=14 ErrMin= 3.85D-07
 ErrMax= 3.85D-07  0.00D+00 EMaxC= 1.00D-01 BMatC= 2.67D-10 BMatP= 5.94D-09
 IDIUse=1 WtCom= 1.00D+00 WtEn= 0.00D+00
 Coeff-Com: -0.148D-05 0.284D-05 0.224D-04-0.124D-04-0.152D-03-0.807D-03
 Coeff-Com: -0.167D-02-0.326D-02-0.423D-02-0.983D-03 0.348D-01 0.118D+00
 Coeff-Com:  0.221D+00 0.637D+00
 Coeff:     -0.148D-05 0.284D-05 0.224D-04-0.124D-04-0.152D-03-0.807D-03
 Coeff:     -0.167D-02-0.326D-02-0.423D-02-0.983D-03 0.348D-01 0.118D+00
 Coeff:      0.221D+00 0.637D+00
 Gap=     0.123 Goal=   None    Shift=    0.000
 RMSDP=7.22D-08 MaxDP=3.11D-06 DE=-8.07D-09 OVMax= 1.03D-05

 Cycle  15  Pass 1  IDiag  1:
 RMSU=  3.93D-08    CP:  1.00D+00  7.78D-01  2.63D-01  6.02D-01  7.01D-01
                    CP:  8.09D-01  5.31D-01  6.10D-01  7.05D-01  1.03D+00
                    CP:  8.44D-01  6.07D-01  6.98D-01  8.24D-01
 E= -7517.81531166163     Delta-E=       -0.000000000236 Rises=F Damp=F
 DIIS: error= 1.29D-07 at cycle  15 NSaved=  15.
 NSaved=15 IEnMin=15 EnMin= -7517.81531166163     IErMin=15 ErrMin= 1.29D-07
 ErrMax= 1.29D-07  0.00D+00 EMaxC= 1.00D-01 BMatC= 3.80D-11 BMatP= 2.67D-10
 IDIUse=1 WtCom= 1.00D+00 WtEn= 0.00D+00
 Coeff-Com:  0.883D-07 0.147D-06 0.144D-06 0.114D-04 0.427D-04 0.929D-05
 Coeff-Com: -0.172D-03-0.487D-03-0.139D-02-0.886D-02-0.742D-02 0.143D-01
 Coeff-Com:  0.591D-01 0.316D+00 0.629D+00
 Coeff:      0.883D-07 0.147D-06 0.144D-06 0.114D-04 0.427D-04 0.929D-05
 Coeff:     -0.172D-03-0.487D-03-0.139D-02-0.886D-02-0.742D-02 0.143D-01
 Coeff:      0.591D-01 0.316D+00 0.629D+00
 Gap=     0.123 Goal=   None    Shift=    0.000
 RMSDP=2.15D-08 MaxDP=9.55D-07 DE=-2.36D-10 OVMax= 3.03D-06

 Cycle  16  Pass 1  IDiag  1:
 RMSU=  1.19D-08    CP:  1.00D+00  7.78D-01  2.63D-01  6.02D-01  7.01D-01
                    CP:  8.09D-01  5.31D-01  6.10D-01  7.05D-01  1.03D+00
                    CP:  8.50D-01  6.06D-01  7.12D-01  9.12D-01  8.49D-01
 E= -7517.81531166136     Delta-E=        0.000000000276 Rises=F Damp=F
 DIIS: error= 3.59D-08 at cycle  16 NSaved=  16.
 NSaved=16 IEnMin=15 EnMin= -7517.81531166163     IErMin=16 ErrMin= 3.59D-08
 ErrMax= 3.59D-08  0.00D+00 EMaxC= 1.00D-01 BMatC= 3.03D-12 BMatP= 3.80D-11
 IDIUse=1 WtCom= 1.00D+00 WtEn= 0.00D+00
 Coeff-Com:  0.699D-07-0.384D-07-0.147D-05 0.616D-05 0.317D-04 0.667D-04
 Coeff-Com:  0.593D-04 0.442D-04-0.263D-03-0.397D-02-0.620D-02-0.405D-02
 Coeff-Com:  0.101D-01 0.952D-01 0.294D+00 0.615D+00
 Coeff:      0.699D-07-0.384D-07-0.147D-05 0.616D-05 0.317D-04 0.667D-04
 Coeff:      0.593D-04 0.442D-04-0.263D-03-0.397D-02-0.620D-02-0.405D-02
 Coeff:      0.101D-01 0.952D-01 0.294D+00 0.615D+00
 Gap=     0.123 Goal=   None    Shift=    0.000
 RMSDP=7.93D-09 MaxDP=3.96D-07 DE= 2.76D-10 OVMax= 1.31D-06

 SCF Done:  E(RPBE1PBE) =  -7517.81531166     A.U. after   16 cycles
            NFock= 16  Conv=0.79D-08     -V/T= 2.1285
 KE= 6.661912402029D+03 PE=-2.466301785873D+04 EE= 6.947252847715D+03
 Leave Link  502 at Thu Mar  8 11:24:05 2018, MaxMem=   536870912 cpu:      3418.0
 (Enter /share/apps//mg09/l601.exe)
 Copying SCF densities to generalized density rwf, IOpCl= 0 IROHF=0.

 **********************************************************************

            Population analysis using the SCF density.

 **********************************************************************

 Orbital symmetries:
       Occupied  (A) (A) (A) (A) (A) (A) (A) (A) (A) (A) (A) (A)
                 (A) (A) (A) (A) (A) (A) (A) (A) (A) (A) (A) (A)
                 (A) (A) (A) (A) (A) (A) (A) (A) (A) (A) (A) (A)
                 (A) (A) (A) (A) (A) (A) (A) (A) (A) (A) (A) (A)
                 (A) (A) (A) (A) (A) (A) (A) (A) (A) (A) (A) (A)
                 (A) (A) (A) (A) (A) (A) (A) (A) (A) (A) (A) (A)
                 (A) (A) (A) (A) (A) (A) (A) (A) (A) (A) (A) (A)
                 (A) (A) (A) (A) (A) (A) (A) (A) (A) (A) (A) (A)
                 (A) (A) (A) (A) (A) (A) (A) (A) (A) (A) (A) (A)
                 (A) (A) (A) (A) (A) (A) (A) (A)
       Virtual   (A) (A) (A) (A) (A) (A) (A) (A) (A) (A) (A) (A)
                 (A) (A) (A) (A) (A) (A) (A) (A) (A) (A) (A) (A)
                 (A) (A) (A) (A) (A) (A) (A) (A) (A) (A) (A) (A)
                 (A) (A) (A) (A) (A) (A) (A) (A) (A) (A) (A) (A)
                 (A) (A) (A) (A) (A) (A) (A) (A) (A) (A) (A) (A)
                 (A) (A) (A) (A) (A) (A) (A) (A) (A) (A) (A) (A)
                 (A) (A) (A) (A) (A) (A) (A) (A) (A) (A) (A) (A)
                 (A) (A) (A) (A) (A) (A) (A) (A) (A) (A) (A) (A)
                 (A) (A) (A) (A) (A) (A) (A) (A) (A) (A) (A) (A)
                 (A) (A) (A) (A) (A) (A) (A) (A) (A) (A) (A) (A)
                 (A) (A) (A) (A) (A) (A) (A) (A) (A) (A) (A) (A)
                 (A) (A) (A) (A) (A) (A) (A) (A) (A) (A) (A) (A)
                 (A) (A) (A) (A) (A) (A) (A) (A) (A) (A) (A) (A)
                 (A) (A) (A) (A) (A) (A) (A) (A) (A) (A) (A) (A)
                 (A) (A) (A) (A) (A) (A) (A) (A) (A) (A) (A) (A)
                 (A) (A) (A) (A) (A) (A) (A) (A) (A) (A) (A) (A)
                 (A) (A) (A) (A) (A) (A) (A) (A) (A) (A) (A) (A)
                 (A) (A) (A) (A) (A) (A) (A) (A) (A) (A) (A) (A)
                 (A) (A) (A) (A) (A) (A) (A) (A) (A) (A) (A) (A)
                 (A) (A) (A) (A) (A) (A) (A) (A) (A) (A) (A) (A)
                 (A) (A) (A) (A) (A) (A) (A) (A) (A) (A) (A) (A)
                 (A) (A) (A) (A) (A) (A) (A) (A) (A) (A) (A) (A)
                 (A) (A) (A) (A) (A) (A) (A) (A) (A) (A) (A) (A)
                 (A) (A) (A) (A) (A) (A) (A) (A) (A) (A) (A) (A)
                 (A) (A) (A) (A) (A) (A) (A) (A) (A) (A) (A) (A)
                 (A) (A) (A) (A) (A) (A) (A) (A) (A) (A) (A) (A)
                 (A) (A) (A) (A) (A) (A) (A) (A) (A) (A) (A) (A)
                 (A) (A) (A) (A)
 The electronic state is 1-A.
 Alpha  occ. eigenvalues -- -399.10801-399.10670-399.09869 -49.92348 -49.92212
 Alpha  occ. eigenvalues --  -49.91425 -44.40431 -44.40397 -44.40387 -44.40295
 Alpha  occ. eigenvalues --  -44.40263 -44.40250 -44.39512 -44.39483 -44.39452
 Alpha  occ. eigenvalues --   -6.28848  -6.28707  -6.27921  -6.02154  -6.01310
 Alpha  occ. eigenvalues --   -6.01198  -6.01011  -5.13611  -5.12870  -4.44276
 Alpha  occ. eigenvalues --   -4.44178  -4.44139  -4.44134  -4.44043  -4.43988
 Alpha  occ. eigenvalues --   -4.43367  -4.43290  -4.43163  -3.74426  -3.74256
 Alpha  occ. eigenvalues --   -3.74194  -3.73526  -3.73524  -3.73498  -3.73342
 Alpha  occ. eigenvalues --   -3.73319  -3.73280  -3.73196  -3.73095  -3.72991
 Alpha  occ. eigenvalues --   -3.46835  -3.46760  -3.46586  -3.46089  -3.45998
 Alpha  occ. eigenvalues --   -3.45863  -1.23718  -1.23692  -1.23648  -1.23610
 Alpha  occ. eigenvalues --   -1.23574  -1.23563  -1.23545  -1.23482  -1.23453
 Alpha  occ. eigenvalues --   -1.23414  -1.22830  -1.22800  -1.22686  -1.22640
 Alpha  occ. eigenvalues --   -1.22610  -1.08398  -1.08118  -1.08039  -1.07916
 Alpha  occ. eigenvalues --   -1.07778  -1.07261  -1.07177  -1.07125  -1.07089
 Alpha  occ. eigenvalues --   -1.07086  -1.07023  -1.06959  -1.06928  -1.06915
 Alpha  occ. eigenvalues --   -1.06821  -1.06807  -1.06741  -1.06707  -1.06607
 Alpha  occ. eigenvalues --   -1.06539  -1.03057  -1.03014  -1.02920  -1.02872
 Alpha  occ. eigenvalues --   -1.02777  -1.02249  -1.02246  -1.02146  -1.02016
 Alpha  occ. eigenvalues --   -1.01992  -0.66386  -0.61651  -0.60500  -0.57087
 Alpha  occ. eigenvalues --   -0.48817  -0.46008  -0.45744  -0.42709  -0.40920
 Alpha  occ. eigenvalues --   -0.28681  -0.27633  -0.26409  -0.25317  -0.25063
 Alpha  occ. eigenvalues --   -0.24666  -0.23156  -0.22993  -0.21680  -0.21342
 Alpha  occ. eigenvalues --   -0.20241
 Alpha virt. eigenvalues --   -0.07985  -0.07712  -0.06735  -0.06193  -0.05444
 Alpha virt. eigenvalues --   -0.05394  -0.04928  -0.04716  -0.03901  -0.03531
 Alpha virt. eigenvalues --   -0.03425  -0.02939  -0.02202   0.03577   0.04376
 Alpha virt. eigenvalues --    0.04551   0.06582   0.08136   0.08431   0.09205
 Alpha virt. eigenvalues --    0.09377   0.09673   0.09927   0.10801   0.10978
 Alpha virt. eigenvalues --    0.11525   0.11823   0.11896   0.12118   0.12919
 Alpha virt. eigenvalues --    0.13950   0.14963   0.15938   0.16706   0.17282
 Alpha virt. eigenvalues --    0.18204   0.18356   0.19446   0.20119   0.20465
 Alpha virt. eigenvalues --    0.20887   0.20993   0.22857   0.23990   0.24489
 Alpha virt. eigenvalues --    0.24982   0.25307   0.26003   0.27671   0.27920
 Alpha virt. eigenvalues --    0.28863   0.30225   0.30507   0.30739   0.31043
 Alpha virt. eigenvalues --    0.31349   0.32159   0.32236   0.33755   0.33951
 Alpha virt. eigenvalues --    0.34746   0.35518   0.36207   0.36418   0.37076
 Alpha virt. eigenvalues --    0.38096   0.39942   0.40489   0.40959   0.41722
 Alpha virt. eigenvalues --    0.42448   0.42907   0.43650   0.44194   0.44605
 Alpha virt. eigenvalues --    0.45227   0.46544   0.47302   0.47952   0.48367
 Alpha virt. eigenvalues --    0.48691   0.49625   0.49919   0.51011   0.51736
 Alpha virt. eigenvalues --    0.52445   0.54298   0.55098   0.55521   0.56394
 Alpha virt. eigenvalues --    0.57924   0.58281   0.58642   0.58904   0.59590
 Alpha virt. eigenvalues --    0.59860   0.61164   0.61576   0.62046   0.62988
 Alpha virt. eigenvalues --    0.63543   0.64035   0.64471   0.65005   0.65625
 Alpha virt. eigenvalues --    0.65842   0.66779   0.66875   0.67904   0.69802
 Alpha virt. eigenvalues --    0.69952   0.71537   0.72559   0.72852   0.74227
 Alpha virt. eigenvalues --    0.74995   0.75342   0.76335   0.77314   0.78281
 Alpha virt. eigenvalues --    0.78684   0.80348   0.81020   0.81472   0.83110
 Alpha virt. eigenvalues --    0.83668   0.84076   0.85079   0.85462   0.86359
 Alpha virt. eigenvalues --    0.87133   0.87658   0.88321   0.89590   0.90730
 Alpha virt. eigenvalues --    0.91287   0.92123   0.92416   0.93790   0.94010
 Alpha virt. eigenvalues --    0.94877   0.95768   0.96569   0.97082   0.97347
 Alpha virt. eigenvalues --    0.98182   0.98903   0.99833   1.01318   1.02413
 Alpha virt. eigenvalues --    1.03341   1.03866   1.05735   1.06212   1.06654
 Alpha virt. eigenvalues --    1.08384   1.08651   1.09804   1.10604   1.11784
 Alpha virt. eigenvalues --    1.13154   1.13669   1.15013   1.15147   1.16414
 Alpha virt. eigenvalues --    1.17888   1.18403   1.18775   1.19445   1.19718
 Alpha virt. eigenvalues --    1.20450   1.20792   1.21345   1.21586   1.22013
 Alpha virt. eigenvalues --    1.22103   1.22912   1.23061   1.23377   1.24114
 Alpha virt. eigenvalues --    1.24515   1.25015   1.25304   1.25952   1.26501
 Alpha virt. eigenvalues --    1.27445   1.27855   1.28181   1.28530   1.28862
 Alpha virt. eigenvalues --    1.29056   1.29832   1.30264   1.31976   1.32583
 Alpha virt. eigenvalues --    1.33435   1.34208   1.36573   1.37484   1.39193
 Alpha virt. eigenvalues --    1.39690   1.40416   1.41584   1.42628   1.43144
 Alpha virt. eigenvalues --    1.44059   1.46224   1.46399   1.46736   1.48637
 Alpha virt. eigenvalues --    1.49509   1.50988   1.51103   1.52210   1.53034
 Alpha virt. eigenvalues --    1.54913   1.55762   1.57378   1.59345   1.60414
 Alpha virt. eigenvalues --    1.62452   1.65057   1.71321   2.06869   2.09871
 Alpha virt. eigenvalues --    2.12132   2.12737   2.14427   2.15374   2.16811
 Alpha virt. eigenvalues --    2.17802   2.18580   2.19672   2.20711   2.20936
 Alpha virt. eigenvalues --    2.22087   2.22864   2.23379   2.24235   2.25849
 Alpha virt. eigenvalues --    2.26898   2.28179   2.29165   2.30815   2.31290
 Alpha virt. eigenvalues --    2.32510   2.34106   2.34481   2.35750   2.38802
 Alpha virt. eigenvalues --    2.39221   2.40357   2.41796   2.43832   2.45022
 Alpha virt. eigenvalues --    2.47553   2.49234   2.51875   2.53095   2.54369
 Alpha virt. eigenvalues --    2.59296   2.60088   2.63668   2.64297   2.68550
 Alpha virt. eigenvalues --    2.68976   2.70064   2.72660   2.74790   2.76163
 Alpha virt. eigenvalues --    2.77048   2.78205   2.80189   2.81306   2.81726
 Alpha virt. eigenvalues --    2.82211   2.82955   2.83275   2.85621   2.86257
 Alpha virt. eigenvalues --    3.19938   3.24280   3.31170   3.35912   3.38203
 Alpha virt. eigenvalues --    3.39916   3.91422   3.93415   3.94516   4.00389
 Alpha virt. eigenvalues --    4.03143   4.05434   4.06291   4.09435   4.11531
 Alpha virt. eigenvalues --    5.13228   5.34074   5.44482  35.36744  35.40641
 Alpha virt. eigenvalues --   35.40748  35.44945  35.45305  35.46963  35.50401
 Alpha virt. eigenvalues --   35.51820  35.52825  35.53537  35.56366  35.63934
 Alpha virt. eigenvalues --   35.86323  35.97050  36.00569  36.05499  36.18963
 Alpha virt. eigenvalues --   36.21897  36.92008  36.98439  37.00775  37.03001
 Alpha virt. eigenvalues --   37.07838  37.14529 113.57343 113.59003 120.21740
 Alpha virt. eigenvalues --  120.24437 120.24871 120.25623
          Condensed to atoms (all electrons):
               1          2          3          4          5          6
     1  Bi  22.370101   0.179196  -0.021192   0.191263  -0.025113  -0.023732
     2  Ge   0.179196  31.515162   0.164543   0.051949   0.154398  -0.018453
     3  Bi  -0.021192   0.164543  22.416755  -0.018528   0.188538  -0.021813
     4  Ge   0.191263   0.051949  -0.018528  31.490530   0.148985   0.161343
     5  Bi  -0.025113   0.154398   0.188538   0.148985  22.327382   0.179360
     6  Bi  -0.023732  -0.018453  -0.021813   0.161343   0.179360  22.376855
     7  Ge   0.156964  -0.016934  -0.015414   0.045010  -0.019119   0.159441
     8  Sn  -0.016942  -0.014858   0.165956  -0.014580  -0.008423   0.172407
     9  Sn   0.155136   0.049963   0.148527  -0.013850  -0.016927  -0.015518
               7          8          9
     1  Bi   0.156964  -0.016942   0.155136
     2  Ge  -0.016934  -0.014858   0.049963
     3  Bi  -0.015414   0.165956   0.148527
     4  Ge   0.045010  -0.014580  -0.013850
     5  Bi  -0.019119  -0.008423  -0.016927
     6  Bi   0.159441   0.172407  -0.015518
     7  Ge  31.541610   0.144197   0.113641
     8  Sn   0.144197  21.424037   0.136703
     9  Sn   0.113641   0.136703  21.365319
 Mulliken charges:
               1
     1  Bi   0.034319
     2  Ge  -0.064966
     3  Bi  -0.007372
     4  Ge  -0.042123
     5  Bi   0.070918
     6  Bi   0.030111
     7  Ge  -0.109396
     8  Sn   0.011504
     9  Sn   0.077006
 Sum of Mulliken charges =   0.00000
 Mulliken charges with hydrogens summed into heavy atoms:
               1
     1  Bi   0.034319
     2  Ge  -0.064966
     3  Bi  -0.007372
     4  Ge  -0.042123
     5  Bi   0.070918
     6  Bi   0.030111
     7  Ge  -0.109396
     8  Sn   0.011504
     9  Sn   0.077006
 Electronic spatial extent (au):  <R**2>=           5964.5924
 Charge=              0.0000 electrons
 Dipole moment (field-independent basis, Debye):
    X=             -0.5423    Y=              0.2090    Z=             -0.4775  Tot=              0.7522
 Quadrupole moment (field-independent basis, Debye-Ang):
   XX=           -213.4189   YY=           -219.0628   ZZ=           -221.1356
   XY=              0.5305   XZ=              0.5026   YZ=              0.7852
 Traceless Quadrupole moment (field-independent basis, Debye-Ang):
   XX=              4.4536   YY=             -1.1904   ZZ=             -3.2632
   XY=              0.5305   XZ=              0.5026   YZ=              0.7852
 Octapole moment (field-independent basis, Debye-Ang**2):
  XXX=            -61.0798  YYY=              7.6284  ZZZ=            -49.5667  XYY=            -26.7691
  XXY=             -5.6066  XXZ=            -22.2528  XZZ=            -26.2310  YZZ=             -2.0904
  YYZ=            -12.0573  XYZ=              4.6337
 Hexadecapole moment (field-independent basis, Debye-Ang**3):
 XXXX=          -3456.9393 YYYY=          -3238.5282 ZZZZ=          -3131.5666 XXXY=            -25.3466
 XXXZ=              5.3968 YYYX=            -27.8098 YYYZ=            -35.8081 ZZZX=              4.4690
 ZZZY=            -52.9335 XXYY=          -1121.2727 XXZZ=          -1085.3042 YYZZ=          -1060.6348
 XXYZ=            -15.2017 YYXZ=             -9.2581 ZZXY=              1.1189
 N-N= 3.536037297325D+03 E-N=-2.466301789763D+04  KE= 6.661912402029D+03
 No NMR shielding tensors so no spin-rotation constants.
 Leave Link  601 at Thu Mar  8 11:24:06 2018, MaxMem=   536870912 cpu:         1.9
 (Enter /share/apps//mg09/l701.exe)
 Compute integral first derivatives.
 ... and contract with generalized density number  0.
   1 Symmetry operations used in ECPInt.
 ECPInt:  NShTT=   10440 NPrTT=   41973 LenC2=    9682 LenP2D=   27434.
 LDataN:  DoStor=T MaxTD1= 9 Len=  602
 Leave Link  701 at Thu Mar  8 11:24:31 2018, MaxMem=   536870912 cpu:        88.5
 (Enter /share/apps//mg09/l702.exe)
 L702 exits ... SP integral derivatives will be done elsewhere.
 Leave Link  702 at Thu Mar  8 11:24:31 2018, MaxMem=   536870912 cpu:         0.0
 (Enter /share/apps//mg09/l703.exe)
 Compute integral first derivatives, UseDBF=F ICtDFT=           0.
 Integral derivatives from FoFJK, PRISM(SPDF).
 Calling FoFJK, ICntrl=      2127 FMM=F ISym2X=0 I1Cent= 0 IOpClX= 0 NMat=1 NMatS=1 NMatT=0.
 FoFJK:  IHMeth= 1 ICntrl=    2127 DoSepK=F KAlg= 0 I1Cent=   0 FoldK=F
 IRaf=         0 NMat=   1 IRICut=       1 DoRegI=T DoRafI=F ISym2E= 0.
 FoFCou: FMM=F IPFlag=           0 FMFlag=      100000 FMFlg1=         800
         NFxFlg=           0 DoJE=F BraDBF=F KetDBF=F FulRan=T
         wScrn=  0.000000 ICntrl=    2127 IOpCl=  0 I1Cent=           0 NGrid=           0
         NMat0=    1 NMatS0=      1 NMatT0=    0 NMatD0=    1 NMtDS0=    0 NMtDT0=    0
 Symmetry not used in FoFCou.
 Defaulting to unpruned grid for atomic number  83.
 Defaulting to unpruned grid for atomic number  83.
 Defaulting to unpruned grid for atomic number  83.
 Defaulting to unpruned grid for atomic number  83.
 Leave Link  703 at Thu Mar  8 11:27:53 2018, MaxMem=   536870912 cpu:       788.4
 (Enter /share/apps//mg09/l716.exe)
 Dipole        =-2.13375263D-01 8.22153832D-02-1.87854464D-01
 ***** Axes restored to original set *****
 -------------------------------------------------------------------
 Center     Atomic                   Forces (Hartrees/Bohr)
 Number     Number              X              Y              Z
 -------------------------------------------------------------------
      1       83          -0.010784016    0.001905468    0.002154867
      2       32          -0.003915824   -0.004884734    0.010916643
      3       83           0.004487407   -0.007369515    0.000049337
      4       32          -0.000362977    0.010967100    0.006556837
      5       83           0.009163126   -0.000298457    0.003498266
      6       83           0.008377318    0.004429354   -0.002734366
      7       32          -0.006000661    0.009366840   -0.008240890
      8       50           0.008385300   -0.004627839   -0.009340522
      9       50          -0.009349674   -0.009488218   -0.002860171
 -------------------------------------------------------------------
 Cartesian Forces:  Max     0.010967100 RMS     0.006859999
 Force constants in Cartesian coordinates: 
                1             2             3             4             5 
      1  0.192362D+00
      2 -0.137179D-01  0.123110D+00
      3 -0.159341D-01  0.276431D-02  0.126118D+00
      4 -0.446864D-01  0.265917D-01 -0.232444D-01  0.131058D+00
      5  0.127045D-01 -0.340756D-01  0.217654D-01 -0.179502D-01  0.920441D-01
      6  0.110323D-02  0.111325D-01 -0.376933D-01 -0.138970D-01 -0.148036D-01
      7 -0.206623D-02  0.187119D-02  0.286408D-02 -0.345482D-01  0.299267D-01
      8  0.640356D-02 -0.172682D-02 -0.822011D-04  0.142371D-01 -0.308424D-01
      9  0.164383D-02  0.157287D-02  0.833557D-02  0.194119D-01 -0.254474D-01
     10 -0.641796D-01 -0.317091D-01 -0.148905D-01  0.416063D-02 -0.312385D-02
     11 -0.614833D-02 -0.359931D-01 -0.123749D-01 -0.235744D-02 -0.103070D-01
     12  0.128244D-02 -0.990215D-02 -0.230765D-01  0.199154D-02  0.512541D-02
     13 -0.532573D-02  0.322464D-02  0.648951D-03 -0.662092D-01 -0.122218D-01
     14  0.161016D-02  0.860651D-02 -0.221630D-02 -0.145025D-01 -0.224777D-01
     15 -0.478859D-02 -0.109622D-02  0.218609D-02  0.185514D-01  0.140385D-01
     16 -0.423177D-02  0.121684D-02  0.405152D-02  0.269546D-02 -0.376573D-02
     17 -0.308658D-02  0.175161D-02  0.330743D-02  0.487147D-03 -0.563345D-03
     18  0.522297D-02  0.194419D-02  0.796036D-02  0.847425D-04  0.253265D-04
     19 -0.405654D-01 -0.103835D-01  0.325427D-01  0.449053D-02  0.560901D-03
     20  0.747872D-02 -0.246677D-01  0.266038D-02 -0.301320D-02 -0.253056D-04
     21  0.818549D-02  0.234591D-01 -0.574103D-01  0.208491D-02  0.376101D-03
     22 -0.764180D-03  0.193126D-02  0.273846D-03  0.106172D-02 -0.304822D-02
     23  0.371895D-02  0.700013D-02 -0.239125D-02 -0.789606D-03  0.396015D-02
     24  0.764027D-02 -0.416548D-02  0.496741D-03 -0.400696D-03  0.232140D-02
     25 -0.305428D-01  0.209749D-01  0.136879D-01  0.197698D-02 -0.308236D-02
     26 -0.896309D-02 -0.440048D-01 -0.134329D-01 -0.270304D-02  0.228708D-02
     27 -0.435552D-02 -0.257091D-01 -0.269163D-01 -0.458232D-02 -0.340112D-02
                6             7             8             9            10 
      6  0.109651D+00
      7  0.148789D-01  0.115652D+00
      8 -0.305834D-02 -0.338153D-01  0.150555D+00
      9 -0.416306D-01  0.240996D-02  0.795407D-02  0.114504D+00
     10  0.138908D-02  0.391974D-02 -0.213146D-02  0.100909D-02  0.141711D+00
     11  0.981290D-03  0.459937D-02 -0.264596D-02  0.129075D-02 -0.163240D-02
     12  0.524765D-04  0.324111D-02 -0.211242D-02  0.133936D-02 -0.101502D-01
     13 -0.667439D-02 -0.249187D-01  0.822999D-02 -0.631063D-02 -0.509325D-01
     14  0.478930D-02 -0.237009D-01 -0.477220D-01 -0.180952D-01  0.297630D-01
     15 -0.170827D-01 -0.177399D-01 -0.426733D-02 -0.264600D-01  0.466799D-03
     16  0.647915D-02  0.658034D-03 -0.130360D-02  0.221085D-02 -0.454608D-01
     17  0.168424D-02 -0.531619D-03 -0.618684D-02  0.354454D-02  0.760240D-02
     18  0.364610D-03  0.198103D-02  0.350564D-02  0.636528D-02  0.292324D-01
     19 -0.471791D-02  0.335832D-02  0.595152D-02 -0.147206D-02  0.353807D-02
     20  0.351218D-02  0.186332D-02 -0.260437D-02 -0.813413D-03 -0.417571D-03
     21 -0.209399D-02 -0.368431D-02  0.769500D-02  0.249709D-02 -0.508605D-02
     22  0.336492D-02 -0.146808D-01  0.981277D-02 -0.734503D-02  0.305349D-02
     23 -0.384892D-02 -0.258941D-02 -0.317975D-01  0.242921D-01  0.468212D-03
     24 -0.227807D-02  0.136437D-01 -0.179708D-02 -0.440335D-01 -0.231480D-02
     25 -0.192603D-02 -0.473738D-01 -0.738451D-02 -0.115579D-01  0.418965D-02
     26 -0.388577D-03  0.223767D-01 -0.270295D-01  0.570172D-02  0.118081D-02
     27 -0.928908D-02 -0.175946D-01 -0.783733D-02 -0.209171D-01  0.344202D-03
               11            12            13            14            15 
     11  0.109918D+00
     12  0.218943D-01  0.919123D-01
     13  0.155952D-01 -0.148939D-01  0.170184D+00
     14 -0.435543D-01  0.106905D-01 -0.513248D-03  0.123472D+00
     15 -0.675097D-02 -0.112457D-01  0.283729D-01 -0.113806D-01  0.103752D+00
     16 -0.104657D-01  0.252439D-01 -0.234489D-01  0.613042D-02 -0.214521D-01
     17 -0.172237D-01 -0.196745D-01 -0.139738D-01 -0.298394D-01  0.145969D-01
     18  0.171961D-02 -0.485147D-01  0.890961D-02  0.203332D-01 -0.436340D-01
     19  0.827076D-03 -0.432306D-02  0.113034D-02  0.220125D-03 -0.785093D-05
     20  0.867741D-04 -0.483764D-02  0.450724D-02  0.170729D-02  0.662758D-03
     21 -0.144931D-02 -0.926478D-02 -0.620329D-02 -0.165025D-02 -0.512216D-03
     22  0.499268D-02  0.168809D-02  0.123701D-03  0.509961D-03 -0.288016D-02
     23  0.113528D-02  0.167604D-03  0.899929D-03  0.614108D-02 -0.333371D-02
     24 -0.466872D-02 -0.118531D-02 -0.156137D-02 -0.365238D-02 -0.644989D-02
     25 -0.541043D-02 -0.407997D-02 -0.603349D-03  0.482980D-03 -0.522401D-03
     26 -0.141618D-02 -0.135118D-02 -0.574818D-02  0.366681D-02 -0.246931D-02
     27 -0.642047D-03 -0.171254D-04 -0.228789D-02  0.118168D-02 -0.553423D-03
               16            17            18            19            20 
     16  0.159280D+00
     17  0.326044D-01  0.117009D+00
     18 -0.202363D-01 -0.632496D-02  0.134007D+00
     19 -0.693936D-01  0.767161D-02 -0.200590D-01  0.153316D+00
     20 -0.206732D-01 -0.215900D-01 -0.135729D-02 -0.103558D-01  0.129224D+00
     21 -0.485155D-02  0.101814D-01 -0.293535D-01 -0.397691D-02 -0.287418D-01
     22 -0.201692D-01 -0.235476D-01 -0.800527D-02 -0.318394D-01  0.156497D-01
     23  0.156053D-02 -0.439225D-01 -0.229772D-01  0.222089D-01 -0.379265D-01
     24  0.121585D-01 -0.398777D-02 -0.314044D-01 -0.408879D-04  0.118293D-01
     25  0.712073D-04 -0.722597D-02  0.286984D-02 -0.240344D-01  0.496073D-02
     26 -0.530398D-02  0.564951D-03  0.313145D-02 -0.167008D-01 -0.442040D-01
     27 -0.360393D-02 -0.332730D-02  0.420955D-02  0.205495D-02  0.170855D-01
               21            22            23            24            25 
     21  0.130676D+00
     22  0.203078D-01  0.105120D+00
     23 -0.120204D-01 -0.659229D-02  0.118484D+00
     24 -0.225804D-01 -0.351772D-01  0.132859D-01  0.128402D+00
     25 -0.677609D-02 -0.419056D-01 -0.188852D-01  0.605244D-02  0.138222D+00
     26  0.215011D-02  0.291761D-03 -0.230745D-01 -0.916521D-02  0.155699D-01
     27 -0.119580D-01  0.277729D-01  0.682589D-02 -0.209669D-01  0.225220D-02
               26            27 
     26  0.133210D+00
     27  0.158239D-01  0.864084D-01
 Leave Link  716 at Thu Mar  8 11:27:53 2018, MaxMem=   536870912 cpu:         0.1
 (Enter /share/apps//mg09/l103.exe)

 GradGradGradGradGradGradGradGradGradGradGradGradGradGradGradGradGradGrad
 Berny optimization.
 Search for a local minimum.
 Step number   1 out of a maximum of  100
 All quantities printed in internal units (Hartrees-Bohrs-Radians)
 Second derivative matrix not updated -- first step.
 ITU=  0
     Eigenvalues ---    0.05121   0.06852   0.08062   0.09073   0.09489
     Eigenvalues ---    0.11117   0.12022   0.12354   0.12466   0.13965
     Eigenvalues ---    0.15727   0.16862   0.18681   0.20074   0.20696
     Eigenvalues ---    0.21281   0.23070   0.23997   0.25088   0.26871
     Eigenvalues ---    0.29260
 RFO step:  Lambda=-8.33856354D-03 EMin= 5.12082358D-02
 Linear search not attempted -- first point.
 TrRot= -0.000757  0.001847  0.001460 -0.091000 -0.000103  0.091026
 Variable       Old X    -DE/DX   Delta X   Delta X   Delta X     New X
                                 (Linear)    (Quad)   (Total)
    X1        5.00034  -0.01078   0.00000  -0.05559  -0.05619   4.94415
    Y1       -1.49765   0.00191   0.00000   0.01338   0.01535  -1.48230
    Z1       -1.17250   0.00215   0.00000   0.02038   0.02236  -1.15014
    X2        1.61689  -0.00392   0.00000  -0.01424  -0.01463   1.60225
    Y2        1.62838  -0.00488   0.00000  -0.04290  -0.04105   1.58733
    Z2       -4.04216   0.01092   0.00000   0.08139   0.08300  -3.95916
    X3       -1.47431   0.00449   0.00000   0.01949   0.01867  -1.45565
    Y3        4.45726  -0.00737   0.00000  -0.06249  -0.06069   4.39658
    Z3       -0.47189   0.00005   0.00000   0.00722   0.00849  -0.46340
    X4        0.48022  -0.00036   0.00000   0.00940   0.00898   0.48921
    Y4       -4.11025   0.01097   0.00000   0.07936   0.08120  -4.02904
    Z4       -2.37354   0.00656   0.00000   0.04329   0.04483  -2.32870
    X5       -3.44429   0.00916   0.00000   0.04736   0.04692  -3.39737
    Y5       -0.29168  -0.00030   0.00000   0.00296   0.00469  -0.28699
    Z5       -3.01789   0.00350   0.00000   0.03618   0.03730  -2.98060
    X6       -2.95005   0.00838   0.00000   0.04296   0.04211  -2.90794
    Y6       -3.40446   0.00443   0.00000   0.04181   0.04360  -3.36086
    Z6        1.81037  -0.00273   0.00000  -0.02240  -0.02120   1.78917
    X7        2.21753  -0.00600   0.00000  -0.03435  -0.03538   2.18215
    Y7       -2.55959   0.00937   0.00000   0.04515   0.04709  -2.51250
    Z7        3.41091  -0.00824   0.00000  -0.06364  -0.06193   3.34898
    X8       -1.51222   0.00839   0.00000   0.05005   0.04879  -1.46343
    Y8        1.47589  -0.00463   0.00000  -0.03254  -0.03069   1.44519
    Z8        4.60192  -0.00934   0.00000  -0.07218  -0.07088   4.53104
    X9        3.51226  -0.00935   0.00000  -0.05822  -0.05926   3.45300
    Y9        2.97328  -0.00949   0.00000  -0.06146  -0.05950   2.91377
    Z9        2.05531  -0.00286   0.00000  -0.04376  -0.04197   2.01334
         Item               Value     Threshold  Converged?
 Maximum Force            0.010967     0.000450     NO 
 RMS     Force            0.006860     0.000300     NO 
 Maximum Displacement     0.083003     0.001800     NO 
 RMS     Displacement     0.046217     0.001200     NO 
 Predicted change in Energy=-4.409949D-03
 Lowest energy point so far.  Saving SCF results.
 GradGradGradGradGradGradGradGradGradGradGradGradGradGradGradGradGradGrad

 Leave Link  103 at Thu Mar  8 11:27:53 2018, MaxMem=   536870912 cpu:         0.1
 (Enter /share/apps//mg09/l202.exe)
                          Input orientation:                          
 ---------------------------------------------------------------------
 Center     Atomic      Atomic             Coordinates (Angstroms)
 Number     Number       Type             X           Y           Z
 ---------------------------------------------------------------------
      1         83           0        2.616331   -0.784400   -0.608625
      2         32           0        0.847875    0.839979   -2.095098
      3         83           0       -0.770296    2.326569   -0.245220
      4         32           0        0.258876   -2.132078   -1.232296
      5         83           0       -1.797813   -0.151867   -1.577263
      6         83           0       -1.538817   -1.778490    0.946789
      7         32           0        1.154744   -1.329560    1.772206
      8         50           0       -0.774413    0.764763    2.397723
      9         50           0        1.827248    1.541902    1.065411
 ---------------------------------------------------------------------
                    Distance matrix (angstroms):
                    1          2          3          4          5
     1  Bi   0.000000
     2  Ge   2.824118   0.000000
     3  Bi   4.612963   2.872363   0.000000
     4  Ge   2.786179   3.150313   4.681137   0.000000
     5  Bi   4.563224   2.872555   2.995459   2.875797   0.000000
     6  Bi   4.546733   4.669663   4.343158   2.846952   3.013938
     7  Ge   2.846365   4.444897   4.598158   3.236302   4.617737
     8  Sn   4.789069   4.777333   3.069918   4.757774   4.205719
     9  Sn   2.972664   3.382408   3.013418   4.608403   4.795169
                    6          7          8          9
     6  Bi   0.000000
     7  Ge   2.852740   0.000000
     8  Sn   3.026163   2.915322   0.000000
     9  Sn   4.729637   3.032674   3.024506   0.000000
 Stoichiometry    Bi4Ge3Sn2
 Framework group  C1[X(Bi4Ge3Sn2)]
 Deg. of freedom    21
 Full point group                 C1      NOp   1
 RotChk:  IX=0 Diff= 1.76D-02
 Largest Abelian subgroup         C1      NOp   1
 Largest concise Abelian subgroup C1      NOp   1
                         Standard orientation:                         
 ---------------------------------------------------------------------
 Center     Atomic      Atomic             Coordinates (Angstroms)
 Number     Number       Type             X           Y           Z
 ---------------------------------------------------------------------
      1         83           0        2.619927   -0.753077   -0.620565
      2         32           0        0.832612    0.865389   -2.090842
      3         83           0       -0.795639    2.322284   -0.226243
      4         32           0        0.274153   -2.118647   -1.249340
      5         83           0       -1.802250   -0.155787   -1.574824
      6         83           0       -1.521980   -1.798888    0.936249
      7         32           0        1.168978   -1.330287    1.759219
      8         50           0       -0.778826    0.740562    2.404778
      9         50           0        1.812255    1.552784    1.072775
 ---------------------------------------------------------------------
 Rotational constants (GHZ):      0.0996625      0.0898849      0.0823073
 Leave Link  202 at Thu Mar  8 11:27:55 2018, MaxMem=   536870912 cpu:         0.1
 (Enter /share/apps//mg09/l301.exe)
 Standard basis: def2TZVP (5D, 7F)
 Ernie: Thresh=  0.10000D-02 Tol=  0.10000D-05 Strict=F.
 There are   519 symmetry adapted cartesian basis functions of A   symmetry.
 There are   444 symmetry adapted basis functions of A   symmetry.
   444 basis functions,   963 primitive gaussians,   519 cartesian basis functions
   116 alpha electrons      116 beta electrons
       nuclear repulsion energy      3595.1065608710 Hartrees.
 IExCor= 1009 DFT=T Ex+Corr=PBE1PBE ExCW=0 ScaHFX=  0.250000
 ScaDFX=  0.750000  0.750000  1.000000  1.000000 ScalE2=  1.000000  1.000000
 IRadAn=      0 IRanWt=     -1 IRanGd=            0 ICorTp=0 IEmpDi=  4
 NAtoms=    9 NActive=    9 NUniq=    9 SFac= 1.00D+00 NAtFMM=   60 NAOKFM=F Big=F
 Integral buffers will be    131072 words long.
 Raffenetti 2 integral format.
 Two-electron integral symmetry is turned on.
 Leave Link  301 at Thu Mar  8 11:27:55 2018, MaxMem=   536870912 cpu:         0.2
 (Enter /share/apps//mg09/l302.exe)
 NPDir=0 NMtPBC=     1 NCelOv=     1 NCel=       1 NClECP=     1 NCelD=      1
         NCelK=      1 NCelE2=     1 NClLst=     1 CellRange=     0.0.
 One-electron integrals computed using PRISM.
   1 Symmetry operations used in ECPInt.
 ECPInt:  NShTT=   10440 NPrTT=   41973 LenC2=    9706 LenP2D=   27612.
 LDataN:  DoStor=T MaxTD1= 8 Len=  415
 NBasis=   444 RedAO= T EigKep=  1.26D-03  NBF=   444
 NBsUse=   444 1.00D-06 EigRej= -1.00D+00 NBFU=   444
 Precomputing XC quadrature grid using
 IXCGrd= 4 IRadAn=           0 IRanWt=          -1 IRanGd=           0 AccXCQ= 0.00D+00.
 Defaulting to unpruned grid for atomic number  83.
 Defaulting to unpruned grid for atomic number  50.
 Defaulting to unpruned grid for atomic number  83.
 Generated NRdTot=       0 NPtTot=           0 NUsed=           0 NTot=          32
 NSgBfM=   502   502   502   502   502 MxSgAt=     9 MxSgA2=     9.
 Leave Link  302 at Thu Mar  8 11:28:03 2018, MaxMem=   536870912 cpu:        33.0
 (Enter /share/apps//mg09/l303.exe)
 DipDrv:  MaxL=1.
 Leave Link  303 at Thu Mar  8 11:28:03 2018, MaxMem=   536870912 cpu:         0.3
 (Enter /share/apps//mg09/l401.exe)
 Initial guess from the checkpoint file:  "Isomer_08.chk"
 B after Tr=     0.000000    0.000000    0.000000
         Rot=    0.999981   -0.003795   -0.001127   -0.004786 Ang=  -0.71 deg.
 Guess basis will be translated and rotated to current coordinates.
 JPrj=2 DoOrth=T DoCkMO=T.
 Generating alternative initial guess.
 ExpMin= 4.62D-02 ExpMax= 4.66D+05 ExpMxC= 4.50D+03 IAcc=2 IRadAn=         4 AccDes= 0.00D+00
 Harris functional with IExCor= 1009 and IRadAn=       4 diagonalized for initial guess.
 HarFok:  IExCor= 1009 AccDes= 0.00D+00 IRadAn=         4 IDoV= 1 UseB2=F ITyADJ=14
 ICtDFT=  3500011 ScaDFX=  1.000000  1.000000  1.000000  1.000000
 Defaulting to unpruned grid for atomic number  83.
 Defaulting to unpruned grid for atomic number  83.
 Defaulting to unpruned grid for atomic number  83.
 Defaulting to unpruned grid for atomic number  83.
 FoFCou: FMM=F IPFlag=           0 FMFlag=      100000 FMFlg1=           0
         NFxFlg=           0 DoJE=T BraDBF=F KetDBF=T FulRan=T
         wScrn=  0.000000 ICntrl=     500 IOpCl=  0 I1Cent=   200000004 NGrid=           0
         NMat0=    1 NMatS0=      1 NMatT0=    0 NMatD0=    1 NMtDS0=    0 NMtDT0=    0
 Petite list used in FoFCou.
 Harris En= -7518.60865107840    
 Leave Link  401 at Thu Mar  8 11:28:08 2018, MaxMem=   536870912 cpu:        14.5
 (Enter /share/apps//mg09/l502.exe)
 Closed shell SCF:
 Using DIIS extrapolation, IDIIS=  1040.
 Integral symmetry usage will be decided dynamically.
 IVT=     1410107 IEndB=     1410107 NGot=   536870912 MDV=   536322046
 LenX=   536322046 LenY=   536052166
 Requested convergence on RMS density matrix=1.00D-08 within 768 cycles.
 Requested convergence on MAX density matrix=1.00D-06.
 Requested convergence on             energy=1.00D-06.
 No special actions if energy rises.
 Fock matrices will be formed incrementally for  20 cycles.

 Cycle   1  Pass 1  IDiag  1:
 FoFJK:  IHMeth= 1 ICntrl=       0 DoSepK=F KAlg= 0 I1Cent=   0 FoldK=F
 IRaf= 880000000 NMat=   1 IRICut=       1 DoRegI=T DoRafI=F ISym2E= 0.
 FoFCou: FMM=F IPFlag=           0 FMFlag=      100000 FMFlg1=           0
         NFxFlg=           0 DoJE=F BraDBF=F KetDBF=F FulRan=T
         wScrn=  0.000000 ICntrl=       0 IOpCl=  0 I1Cent=           0 NGrid=           0
         NMat0=    1 NMatS0=      1 NMatT0=    0 NMatD0=    1 NMtDS0=    0 NMtDT0=    0
 Symmetry not used in FoFCou.
 Defaulting to unpruned grid for atomic number  83.
 Defaulting to unpruned grid for atomic number  83.
 Defaulting to unpruned grid for atomic number  83.
 Defaulting to unpruned grid for atomic number  83.
 E= -7517.81963390047    
 DIIS: error= 5.51D-03 at cycle   1 NSaved=   1.
 NSaved= 1 IEnMin= 1 EnMin= -7517.81963390047     IErMin= 1 ErrMin= 5.51D-03
 ErrMax= 5.51D-03  0.00D+00 EMaxC= 1.00D-01 BMatC= 9.90D-03 BMatP= 9.90D-03
 IDIUse=3 WtCom= 9.45D-01 WtEn= 5.51D-02
 Coeff-Com:  0.100D+01
 Coeff-En:   0.100D+01
 Coeff:      0.100D+01
 Gap=     7.050 Goal=   None    Shift=    0.000
 GapD=    7.050 DampG=2.000 DampE=1.000 DampFc=2.0000 IDamp=-1.
 RMSDP=1.95D-04 MaxDP=5.10D-03              OVMax= 2.28D-02

 Cycle   2  Pass 1  IDiag  1:
 RMSU=  1.95D-04    CP:  1.00D+00
 E= -7517.81970630358     Delta-E=       -0.000072403111 Rises=F Damp=F
 DIIS: error= 1.14D-03 at cycle   2 NSaved=   2.
 NSaved= 2 IEnMin= 2 EnMin= -7517.81970630358     IErMin= 2 ErrMin= 1.14D-03
 ErrMax= 1.14D-03  0.00D+00 EMaxC= 1.00D-01 BMatC= 1.75D-03 BMatP= 9.90D-03
 IDIUse=3 WtCom= 9.89D-01 WtEn= 1.14D-02
 Coeff-Com:  0.188D+00 0.812D+00
 Coeff-En:   0.481D+00 0.519D+00
 Coeff:      0.191D+00 0.809D+00
 Gap=     0.125 Goal=   None    Shift=    0.000
 RMSDP=2.16D-04 MaxDP=8.21D-03 DE=-7.24D-05 OVMax= 1.73D-02

 Cycle   3  Pass 1  IDiag  1:
 RMSU=  1.98D-04    CP:  9.99D-01  5.72D-01
 E= -7517.81766774071     Delta-E=        0.002038562870 Rises=F Damp=F
 DIIS: error= 1.74D-03 at cycle   3 NSaved=   3.
 NSaved= 3 IEnMin= 2 EnMin= -7517.81970630358     IErMin= 2 ErrMin= 1.14D-03
 ErrMax= 1.74D-03  0.00D+00 EMaxC= 1.00D-01 BMatC= 4.22D-03 BMatP= 1.75D-03
 IDIUse=3 WtCom= 1.93D-01 WtEn= 8.07D-01
 Coeff-Com:  0.470D-02 0.607D+00 0.388D+00
 Coeff-En:   0.000D+00 0.665D+00 0.335D+00
 Coeff:      0.909D-03 0.654D+00 0.345D+00
 Gap=     0.126 Goal=   None    Shift=    0.000
 RMSDP=1.17D-04 MaxDP=4.65D-03 DE= 2.04D-03 OVMax= 1.20D-02

 Cycle   4  Pass 1  IDiag  1:
 RMSU=  3.73D-05    CP:  9.99D-01  8.22D-01  4.99D-01
 E= -7517.82092848536     Delta-E=       -0.003260744650 Rises=F Damp=F
 DIIS: error= 2.94D-04 at cycle   4 NSaved=   4.
 NSaved= 4 IEnMin= 4 EnMin= -7517.82092848536     IErMin= 4 ErrMin= 2.94D-04
 ErrMax= 2.94D-04  0.00D+00 EMaxC= 1.00D-01 BMatC= 1.73D-04 BMatP= 1.75D-03
 IDIUse=3 WtCom= 9.97D-01 WtEn= 2.94D-03
 Coeff-Com: -0.264D-03 0.422D+00 0.223D+00 0.355D+00
 Coeff-En:   0.000D+00 0.596D-01 0.000D+00 0.940D+00
 Coeff:     -0.263D-03 0.421D+00 0.223D+00 0.356D+00
 Gap=     0.126 Goal=   None    Shift=    0.000
 RMSDP=3.70D-05 MaxDP=1.65D-03 DE=-3.26D-03 OVMax= 4.08D-03

 Cycle   5  Pass 1  IDiag  1:
 RMSU=  1.61D-05    CP:  9.99D-01  8.73D-01  4.45D-01  2.05D-01
 E= -7517.82106074039     Delta-E=       -0.000132255031 Rises=F Damp=F
 DIIS: error= 1.17D-04 at cycle   5 NSaved=   5.
 NSaved= 5 IEnMin= 5 EnMin= -7517.82106074039     IErMin= 5 ErrMin= 1.17D-04
 ErrMax= 1.17D-04  0.00D+00 EMaxC= 1.00D-01 BMatC= 1.78D-05 BMatP= 1.73D-04
 IDIUse=3 WtCom= 9.99D-01 WtEn= 1.17D-03
 Coeff-Com: -0.897D-03 0.224D+00 0.106D+00 0.279D+00 0.392D+00
 Coeff-En:   0.000D+00 0.000D+00 0.000D+00 0.143D+00 0.857D+00
 Coeff:     -0.896D-03 0.223D+00 0.106D+00 0.279D+00 0.393D+00
 Gap=     0.126 Goal=   None    Shift=    0.000
 RMSDP=1.22D-05 MaxDP=6.22D-04 DE=-1.32D-04 OVMax= 1.29D-03

 Cycle   6  Pass 1  IDiag  1:
 RMSU=  4.11D-06    CP:  9.99D-01  8.82D-01  4.40D-01  4.41D-01  5.71D-01
 E= -7517.82108222141     Delta-E=       -0.000021481021 Rises=F Damp=F
 DIIS: error= 1.27D-05 at cycle   6 NSaved=   6.
 NSaved= 6 IEnMin= 6 EnMin= -7517.82108222141     IErMin= 6 ErrMin= 1.27D-05
 ErrMax= 1.27D-05  0.00D+00 EMaxC= 1.00D-01 BMatC= 3.73D-07 BMatP= 1.78D-05
 IDIUse=1 WtCom= 1.00D+00 WtEn= 0.00D+00
 Coeff-Com: -0.343D-03 0.554D-01 0.260D-01 0.861D-01 0.174D+00 0.659D+00
 Coeff:     -0.343D-03 0.554D-01 0.260D-01 0.861D-01 0.174D+00 0.659D+00
 Gap=     0.126 Goal=   None    Shift=    0.000
 RMSDP=2.87D-06 MaxDP=1.67D-04 DE=-2.15D-05 OVMax= 4.17D-04

 Cycle   7  Pass 1  IDiag  1:
 RMSU=  2.21D-06    CP:  9.99D-01  8.86D-01  4.43D-01  4.27D-01  6.51D-01
                    CP:  8.78D-01
 E= -7517.82108238237     Delta-E=       -0.000000160957 Rises=F Damp=F
 DIIS: error= 1.33D-05 at cycle   7 NSaved=   7.
 NSaved= 7 IEnMin= 7 EnMin= -7517.82108238237     IErMin= 6 ErrMin= 1.27D-05
 ErrMax= 1.33D-05  0.00D+00 EMaxC= 1.00D-01 BMatC= 2.43D-07 BMatP= 3.73D-07
 IDIUse=1 WtCom= 1.00D+00 WtEn= 0.00D+00
 Coeff-Com: -0.111D-03 0.368D-02 0.201D-02 0.194D-01 0.611D-01 0.494D+00
 Coeff-Com:  0.420D+00
 Coeff:     -0.111D-03 0.368D-02 0.201D-02 0.194D-01 0.611D-01 0.494D+00
 Coeff:      0.420D+00
 Gap=     0.126 Goal=   None    Shift=    0.000
 RMSDP=1.81D-06 MaxDP=7.57D-05 DE=-1.61D-07 OVMax= 2.04D-04

 Cycle   8  Pass 1  IDiag  1:
 RMSU=  1.03D-06    CP:  9.99D-01  8.87D-01  4.45D-01  4.31D-01  6.60D-01
                    CP:  1.08D+00  4.78D-01
 E= -7517.82108260374     Delta-E=       -0.000000221367 Rises=F Damp=F
 DIIS: error= 6.62D-06 at cycle   8 NSaved=   8.
 NSaved= 8 IEnMin= 8 EnMin= -7517.82108260374     IErMin= 8 ErrMin= 6.62D-06
 ErrMax= 6.62D-06  0.00D+00 EMaxC= 1.00D-01 BMatC= 7.46D-08 BMatP= 2.43D-07
 IDIUse=1 WtCom= 1.00D+00 WtEn= 0.00D+00
 Coeff-Com:  0.164D-04-0.164D-01-0.722D-02-0.112D-01-0.489D-02 0.240D+00
 Coeff-Com:  0.365D+00 0.435D+00
 Coeff:      0.164D-04-0.164D-01-0.722D-02-0.112D-01-0.489D-02 0.240D+00
 Coeff:      0.365D+00 0.435D+00
 Gap=     0.126 Goal=   None    Shift=    0.000
 RMSDP=8.66D-07 MaxDP=4.25D-05 DE=-2.21D-07 OVMax= 8.91D-05

 Cycle   9  Pass 1  IDiag  1:
 RMSU=  3.42D-07    CP:  9.99D-01  8.87D-01  4.45D-01  4.39D-01  6.66D-01
                    CP:  1.11D+00  6.41D-01  4.06D-01
 E= -7517.82108269163     Delta-E=       -0.000000087895 Rises=F Damp=F
 DIIS: error= 1.43D-06 at cycle   9 NSaved=   9.
 NSaved= 9 IEnMin= 9 EnMin= -7517.82108269163     IErMin= 9 ErrMin= 1.43D-06
 ErrMax= 1.43D-06  0.00D+00 EMaxC= 1.00D-01 BMatC= 4.39D-09 BMatP= 7.46D-08
 IDIUse=1 WtCom= 1.00D+00 WtEn= 0.00D+00
 Coeff-Com:  0.227D-04-0.102D-01-0.445D-02-0.850D-02-0.972D-02 0.895D-01
 Coeff-Com:  0.177D+00 0.278D+00 0.488D+00
 Coeff:      0.227D-04-0.102D-01-0.445D-02-0.850D-02-0.972D-02 0.895D-01
 Coeff:      0.177D+00 0.278D+00 0.488D+00
 Gap=     0.126 Goal=   None    Shift=    0.000
 RMSDP=2.17D-07 MaxDP=8.66D-06 DE=-8.79D-08 OVMax= 3.11D-05

 Cycle  10  Pass 1  IDiag  1:
 RMSU=  1.15D-07    CP:  9.99D-01  8.87D-01  4.46D-01  4.39D-01  6.72D-01
                    CP:  1.11D+00  6.45D-01  5.30D-01  7.91D-01
 E= -7517.82108269667     Delta-E=       -0.000000005037 Rises=F Damp=F
 DIIS: error= 3.81D-07 at cycle  10 NSaved=  10.
 NSaved=10 IEnMin=10 EnMin= -7517.82108269667     IErMin=10 ErrMin= 3.81D-07
 ErrMax= 3.81D-07  0.00D+00 EMaxC= 1.00D-01 BMatC= 2.04D-10 BMatP= 4.39D-09
 IDIUse=1 WtCom= 1.00D+00 WtEn= 0.00D+00
 Coeff-Com:  0.504D-05-0.128D-02-0.499D-03-0.126D-02-0.299D-02-0.416D-03
 Coeff-Com:  0.132D-01 0.391D-01 0.196D+00 0.758D+00
 Coeff:      0.504D-05-0.128D-02-0.499D-03-0.126D-02-0.299D-02-0.416D-03
 Coeff:      0.132D-01 0.391D-01 0.196D+00 0.758D+00
 Gap=     0.126 Goal=   None    Shift=    0.000
 RMSDP=8.48D-08 MaxDP=3.36D-06 DE=-5.04D-09 OVMax= 1.52D-05

 Cycle  11  Pass 1  IDiag  1:
 RMSU=  6.67D-08    CP:  9.99D-01  8.87D-01  4.46D-01  4.39D-01  6.73D-01
                    CP:  1.12D+00  6.54D-01  5.41D-01  8.69D-01  9.33D-01
 E= -7517.82108269644     Delta-E=        0.000000000231 Rises=F Damp=F
 DIIS: error= 5.12D-07 at cycle  11 NSaved=  11.
 NSaved=11 IEnMin=10 EnMin= -7517.82108269667     IErMin=10 ErrMin= 3.81D-07
 ErrMax= 5.12D-07  0.00D+00 EMaxC= 1.00D-01 BMatC= 2.76D-10 BMatP= 2.04D-10
 IDIUse=1 WtCom= 1.00D+00 WtEn= 0.00D+00
 Coeff-Com:  0.514D-06 0.537D-03 0.280D-03 0.285D-03-0.103D-02-0.141D-01
 Coeff-Com: -0.173D-01-0.126D-01 0.845D-01 0.634D+00 0.326D+00
 Coeff:      0.514D-06 0.537D-03 0.280D-03 0.285D-03-0.103D-02-0.141D-01
 Coeff:     -0.173D-01-0.126D-01 0.845D-01 0.634D+00 0.326D+00
 Gap=     0.126 Goal=   None    Shift=    0.000
 RMSDP=5.17D-08 MaxDP=2.19D-06 DE= 2.31D-10 OVMax= 6.00D-06

 Cycle  12  Pass 1  IDiag  1:
 RMSU=  2.44D-08    CP:  9.99D-01  8.87D-01  4.46D-01  4.39D-01  6.73D-01
                    CP:  1.12D+00  6.55D-01  5.39D-01  8.96D-01  1.06D+00
                    CP:  3.96D-01
 E= -7517.82108269698     Delta-E=       -0.000000000542 Rises=F Damp=F
 DIIS: error= 1.08D-07 at cycle  12 NSaved=  12.
 NSaved=12 IEnMin=12 EnMin= -7517.82108269698     IErMin=12 ErrMin= 1.08D-07
 ErrMax= 1.08D-07  0.00D+00 EMaxC= 1.00D-01 BMatC= 1.73D-11 BMatP= 2.04D-10
 IDIUse=1 WtCom= 1.00D+00 WtEn= 0.00D+00
 Coeff-Com: -0.525D-06 0.590D-03 0.277D-03 0.419D-03-0.227D-03-0.941D-02
 Coeff-Com: -0.146D-01-0.159D-01 0.272D-01 0.318D+00 0.224D+00 0.469D+00
 Coeff:     -0.525D-06 0.590D-03 0.277D-03 0.419D-03-0.227D-03-0.941D-02
 Coeff:     -0.146D-01-0.159D-01 0.272D-01 0.318D+00 0.224D+00 0.469D+00
 Gap=     0.126 Goal=   None    Shift=    0.000
 RMSDP=1.51D-08 MaxDP=8.65D-07 DE=-5.42D-10 OVMax= 2.01D-06

 Cycle  13  Pass 1  IDiag  1:
 RMSU=  8.18D-09    CP:  9.99D-01  8.87D-01  4.46D-01  4.39D-01  6.73D-01
                    CP:  1.12D+00  6.55D-01  5.39D-01  9.09D-01  1.08D+00
                    CP:  4.93D-01  6.64D-01
 E= -7517.82108269747     Delta-E=       -0.000000000491 Rises=F Damp=F
 DIIS: error= 3.90D-08 at cycle  13 NSaved=  13.
 NSaved=13 IEnMin=13 EnMin= -7517.82108269747     IErMin=13 ErrMin= 3.90D-08
 ErrMax= 3.90D-08  0.00D+00 EMaxC= 1.00D-01 BMatC= 2.02D-12 BMatP= 1.73D-11
 IDIUse=1 WtCom= 1.00D+00 WtEn= 0.00D+00
 Coeff-Com: -0.461D-06 0.288D-03 0.127D-03 0.238D-03 0.791D-04-0.326D-02
 Coeff-Com: -0.623D-02-0.819D-02-0.975D-03 0.824D-01 0.768D-01 0.290D+00
 Coeff-Com:  0.569D+00
 Coeff:     -0.461D-06 0.288D-03 0.127D-03 0.238D-03 0.791D-04-0.326D-02
 Coeff:     -0.623D-02-0.819D-02-0.975D-03 0.824D-01 0.768D-01 0.290D+00
 Coeff:      0.569D+00
 Gap=     0.126 Goal=   None    Shift=    0.000
 RMSDP=4.69D-09 MaxDP=3.30D-07 DE=-4.91D-10 OVMax= 5.39D-07

 SCF Done:  E(RPBE1PBE) =  -7517.82108270     A.U. after   13 cycles
            NFock= 13  Conv=0.47D-08     -V/T= 2.1284
 KE= 6.662136026682D+03 PE=-2.478123516896D+04 EE= 7.006171498706D+03
 Leave Link  502 at Thu Mar  8 11:39:38 2018, MaxMem=   536870912 cpu:      2701.9
 (Enter /share/apps//mg09/l701.exe)
 Compute integral first derivatives.
 ... and contract with generalized density number  0.
   1 Symmetry operations used in ECPInt.
 ECPInt:  NShTT=   10440 NPrTT=   41973 LenC2=    9706 LenP2D=   27612.
 LDataN:  DoStor=T MaxTD1= 9 Len=  602
 Leave Link  701 at Thu Mar  8 11:40:02 2018, MaxMem=   536870912 cpu:        89.4
 (Enter /share/apps//mg09/l702.exe)
 L702 exits ... SP integral derivatives will be done elsewhere.
 Leave Link  702 at Thu Mar  8 11:40:02 2018, MaxMem=   536870912 cpu:         0.1
 (Enter /share/apps//mg09/l703.exe)
 Compute integral first derivatives, UseDBF=F ICtDFT=           0.
 Integral derivatives from FoFJK, PRISM(SPDF).
 Calling FoFJK, ICntrl=      2127 FMM=F ISym2X=0 I1Cent= 0 IOpClX= 0 NMat=1 NMatS=1 NMatT=0.
 FoFJK:  IHMeth= 1 ICntrl=    2127 DoSepK=F KAlg= 0 I1Cent=   0 FoldK=F
 IRaf=         0 NMat=   1 IRICut=       1 DoRegI=T DoRafI=F ISym2E= 0.
 FoFCou: FMM=F IPFlag=           0 FMFlag=      100000 FMFlg1=         800
         NFxFlg=           0 DoJE=F BraDBF=F KetDBF=F FulRan=T
         wScrn=  0.000000 ICntrl=    2127 IOpCl=  0 I1Cent=           0 NGrid=           0
         NMat0=    1 NMatS0=      1 NMatT0=    0 NMatD0=    1 NMtDS0=    0 NMtDT0=    0
 Symmetry not used in FoFCou.
 Defaulting to unpruned grid for atomic number  83.
 Defaulting to unpruned grid for atomic number  83.
 Defaulting to unpruned grid for atomic number  83.
 Defaulting to unpruned grid for atomic number  83.
 Leave Link  703 at Thu Mar  8 11:43:30 2018, MaxMem=   536870912 cpu:       818.0
 (Enter /share/apps//mg09/l716.exe)
 Dipole        =-2.34159234D-01 7.21074962D-02-2.14759664D-01
 ***** Axes restored to original set *****
 -------------------------------------------------------------------
 Center     Atomic                   Forces (Hartrees/Bohr)
 Number     Number              X              Y              Z
 -------------------------------------------------------------------
      1       83          -0.002129195   -0.000604369    0.000004750
      2       32          -0.002233101   -0.002293735    0.004795598
      3       83           0.001781468   -0.000282056    0.000029682
      4       32          -0.000689173    0.005187986    0.002758158
      5       83           0.003084620   -0.000878507   -0.001525582
      6       83           0.003250981   -0.000393791    0.000438983
      7       32          -0.003529256    0.005631065   -0.003506961
      8       50           0.004916916   -0.002210531   -0.003031886
      9       50          -0.004453260   -0.004156062    0.000037257
 -------------------------------------------------------------------
 Cartesian Forces:  Max     0.005631065 RMS     0.002929738
 Leave Link  716 at Thu Mar  8 11:43:30 2018, MaxMem=   536870912 cpu:         0.1
 (Enter /share/apps//mg09/l103.exe)

 GradGradGradGradGradGradGradGradGradGradGradGradGradGradGradGradGradGrad
 Berny optimization.
 Search for a local minimum.
 Step number   2 out of a maximum of  100
 All quantities printed in internal units (Hartrees-Bohrs-Radians)
 Update second derivatives using D2CorN and points    1    2
 DE= -5.77D-03 DEPred=-4.41D-03 R= 1.31D+00
 TightC=F SS=  1.41D+00  RLast= 2.40D-01 DXNew= 5.0454D-01 7.2046D-01
 Trust test= 1.31D+00 RLast= 2.40D-01 DXMaxT set to 5.05D-01
 ITU=  1  0
     Eigenvalues ---    0.05113   0.06796   0.07635   0.08469   0.09075
     Eigenvalues ---    0.11070   0.11594   0.12257   0.12462   0.13608
     Eigenvalues ---    0.14039   0.16662   0.18627   0.20053   0.20672
     Eigenvalues ---    0.21296   0.23064   0.24014   0.25089   0.26863
     Eigenvalues ---    0.29229
 RFO step:  Lambda=-5.01907051D-04 EMin= 5.11336913D-02
 Quartic linear search produced a step of  0.51335.
 TrRot= -0.000346  0.000417  0.000070  0.000003  0.000005  0.000003
 Variable       Old X    -DE/DX   Delta X   Delta X   Delta X     New X
                                 (Linear)    (Quad)   (Total)
    X1        4.94415  -0.00213  -0.02884   0.00477  -0.02442   4.91973
    Y1       -1.48230  -0.00060   0.00788  -0.00942  -0.00110  -1.48340
    Z1       -1.15014   0.00000   0.01148  -0.00393   0.00759  -1.14254
    X2        1.60225  -0.00223  -0.00751  -0.00506  -0.01295   1.58930
    Y2        1.58733  -0.00229  -0.02107  -0.00325  -0.02389   1.56344
    Z2       -3.95916   0.00480   0.04261   0.00684   0.04951  -3.90965
    X3       -1.45565   0.00178   0.00958   0.00136   0.01057  -1.44508
    Y3        4.39658  -0.00028  -0.03115   0.01756  -0.01319   4.38339
    Z3       -0.46340   0.00003   0.00436  -0.00035   0.00408  -0.45932
    X4        0.48921  -0.00069   0.00461  -0.00496  -0.00068   0.48852
    Y4       -4.02904   0.00519   0.04169   0.00689   0.04899  -3.98005
    Z4       -2.32870   0.00276   0.02302   0.00116   0.02424  -2.30446
    X5       -3.39737   0.00308   0.02409  -0.00209   0.02163  -3.37574
    Y5       -0.28699  -0.00088   0.00241  -0.00794  -0.00514  -0.29213
    Z5       -2.98060  -0.00153   0.01915  -0.02905  -0.00982  -2.99041
    X6       -2.90794   0.00325   0.02162   0.00375   0.02505  -2.88289
    Y6       -3.36086  -0.00039   0.02238  -0.01561   0.00717  -3.35369
    Z6        1.78917   0.00044  -0.01088   0.00940  -0.00140   1.78777
    X7        2.18215  -0.00353  -0.01816  -0.00587  -0.02435   2.15780
    Y7       -2.51250   0.00563   0.02417   0.01636   0.04096  -2.47154
    Z7        3.34898  -0.00351  -0.03179  -0.00243  -0.03416   3.31482
    X8       -1.46343   0.00492   0.02505   0.01712   0.04184  -1.42159
    Y8        1.44519  -0.00221  -0.01576  -0.00287  -0.01822   1.42698
    Z8        4.53104  -0.00303  -0.03639   0.00720  -0.02911   4.50193
    X9        3.45300  -0.00445  -0.03042  -0.00591  -0.03669   3.41631
    Y9        2.91377  -0.00416  -0.03055  -0.00548  -0.03559   2.87818
    Z9        2.01334   0.00004  -0.02155   0.01057  -0.01093   2.00241
         Item               Value     Threshold  Converged?
 Maximum Force            0.005631     0.000450     NO 
 RMS     Force            0.002930     0.000300     NO 
 Maximum Displacement     0.049512     0.001800     NO 
[...]
     X          XX          X   X               X    X X  X  X                                                                       
     X          XX          X   X               X    X X  X  X                                                                       
     X          XX          X   X               X      X  X                                                                          
     X          XX          X   X               X         X                                                                          
     X          XX          X   X               X                                                                                    
     X          XX          X   X               X                                                                                    
     X           X          X   X               X                                                                                    
                 X              X                                                                                                    
                 X              X                                                                                                    
                                X                                                                                                    
                                X                                                                                                    
                                X                                                                                                    
                                X                                                                                                    
                                X                                                                                                    
                                X                                                                                                    
 
 ***** Axes restored to original set *****
 -------------------------------------------------------------------
 Center     Atomic                   Forces (Hartrees/Bohr)
 Number     Number              X              Y              Z
 -------------------------------------------------------------------
      1       83           0.000016026   -0.000018117    0.000018805
      2       32           0.000028352    0.000014655    0.000015669
      3       83          -0.000041215    0.000005474    0.000036294
      4       32           0.000003437    0.000006862    0.000003836
      5       83          -0.000011572   -0.000016378    0.000012225
      6       83           0.000015401    0.000007941   -0.000012536
      7       32           0.000010154    0.000008385   -0.000007212
      8       50          -0.000009889    0.000004678    0.000024809
      9       50          -0.000010694   -0.000013499   -0.000091890
 -------------------------------------------------------------------
 Cartesian Forces:  Max     0.000091890 RMS     0.000024368
 Force constants in Cartesian coordinates: 
                1             2             3             4             5 
      1  0.935169D-01
      2 -0.763273D-02  0.572924D-01
      3 -0.692769D-02  0.811959D-02  0.579538D-01
      4 -0.217418D-01  0.165742D-01 -0.130415D-01  0.677644D-01
      5  0.156234D-01 -0.139409D-01  0.115660D-01 -0.118840D-01  0.386368D-01
      6 -0.109320D-01  0.116185D-01 -0.124374D-01 -0.928210D-02 -0.112401D-01
      7 -0.145987D-02  0.368306D-02 -0.642989D-03 -0.117698D-01  0.128670D-01
      8 -0.461663D-03 -0.206729D-02 -0.255979D-03  0.116633D-01 -0.117638D-01
      9 -0.819991D-04 -0.155151D-02  0.115116D-02  0.124991D-01 -0.957880D-02
     10 -0.402226D-01 -0.190714D-01 -0.883228D-02  0.154562D-02 -0.596107D-03
     11 -0.171132D-01 -0.107030D-01 -0.574623D-02 -0.182246D-03 -0.549884D-02
     12 -0.808676D-02 -0.636871D-02 -0.264432D-02  0.374906D-02  0.117403D-02
     13 -0.309364D-02 -0.194347D-03 -0.175740D-02 -0.331439D-01 -0.101612D-01
     14  0.143189D-03 -0.118999D-02 -0.788020D-04 -0.102131D-01 -0.304711D-02
     15  0.872416D-03 -0.584190D-03 -0.143975D-02  0.382098D-02  0.482821D-02
     16 -0.361798D-02 -0.254689D-02  0.111639D-02 -0.487951D-04  0.913849D-03
     17  0.145372D-02  0.595091D-03  0.794048D-03 -0.848957D-03 -0.321620D-02
     18  0.617170D-03  0.236968D-02 -0.945256D-03  0.697914D-02  0.439631D-02
     19 -0.152145D-01 -0.273083D-02  0.197150D-01  0.144991D-02 -0.399619D-02
     20 -0.111329D-02 -0.150975D-02  0.443270D-02  0.127303D-03 -0.324754D-02
     21  0.171634D-01  0.538971D-02 -0.268262D-01 -0.572229D-02  0.347684D-02
     22 -0.128118D-02  0.465169D-03  0.202617D-02 -0.260104D-02 -0.721845D-03
     23 -0.817420D-03 -0.340190D-02  0.496558D-03 -0.272677D-02  0.145050D-02
     24 -0.206481D-03  0.303561D-03 -0.267342D-02  0.162582D-02 -0.391580D-02
     25 -0.688536D-02  0.114539D-01  0.834428D-02 -0.145463D-02 -0.204486D-02
     26  0.991799D-02 -0.250746D-01 -0.193279D-01 -0.250972D-02  0.627160D-03
     27  0.758196D-02 -0.192967D-01 -0.121386D-01 -0.628222D-03 -0.706704D-03
                6             7             8             9            10 
      6  0.538389D-01
      7  0.122016D-01  0.533453D-01
      8 -0.884616D-02 -0.143913D-01  0.768258D-01
      9 -0.183346D-01  0.106064D-01  0.942159D-02  0.567525D-01
     10  0.347421D-02 -0.182025D-03  0.182460D-02  0.387591D-02  0.775717D-01
     11 -0.148832D-02 -0.138303D-02 -0.532786D-02 -0.441761D-02 -0.592161D-03
     12 -0.291089D-02  0.219514D-02  0.185819D-02 -0.574746D-03 -0.668588D-02
     13  0.129162D-02 -0.902140D-02 -0.118446D-01 -0.988452D-02 -0.219871D-01
     14  0.533726D-02 -0.113047D-01 -0.340299D-01 -0.173960D-01  0.171984D-01
     15 -0.174940D-02 -0.910421D-02 -0.174345D-01 -0.889690D-02 -0.587090D-02
     16  0.116079D-02  0.172532D-02  0.257815D-02 -0.114501D-02 -0.171135D-01
     17 -0.597027D-03 -0.458672D-02 -0.456108D-02  0.229273D-02  0.452355D-03
     18 -0.298148D-02  0.562470D-03  0.326962D-03 -0.294308D-03  0.197244D-01
     19  0.103950D-02 -0.421400D-02 -0.386974D-03 -0.116487D-02 -0.457838D-03
     20  0.157000D-02  0.648049D-03 -0.273626D-02  0.437102D-02  0.212183D-02
     21 -0.621722D-02 -0.121614D-02 -0.972533D-04 -0.212959D-02 -0.140471D-02
     22  0.134864D-02 -0.240909D-02  0.246703D-02  0.572754D-03 -0.765292D-03
     23  0.308540D-02  0.267332D-02 -0.101206D-01  0.130039D-01  0.378709D-02
     24 -0.490358D-02  0.260667D-03  0.116325D-01 -0.224878D-01  0.527094D-03
     25 -0.302236D-03 -0.260144D-01  0.855144D-02 -0.152778D-01  0.161101D-02
     26  0.560372D-03  0.117944D-01 -0.621891D-02  0.385465D-02 -0.512458D-02
     27 -0.430434D-02 -0.148630D-01  0.339465D-02 -0.518572D-02 -0.480784D-02
               11            12            13            14            15 
     11  0.517439D-01
     12  0.153941D-01  0.372939D-01
     13  0.155517D-01 -0.756635D-02  0.764925D-01
     14 -0.177309D-01  0.163416D-02  0.474889D-02  0.690913D-01
     15  0.164010D-02  0.183475D-02  0.213879D-01 -0.718499D-02  0.513648D-01
     16 -0.679299D-03  0.198632D-01 -0.527813D-02 -0.137191D-03 -0.233308D-02
     17 -0.298238D-02 -0.501218D-02  0.614746D-03 -0.120576D-01  0.196837D-01
     18 -0.517932D-02 -0.242625D-01 -0.450472D-02  0.200830D-01 -0.293714D-01
     19  0.192713D-02 -0.114541D-02 -0.132442D-02  0.678445D-02 -0.523188D-02
     20 -0.222648D-02 -0.150330D-02  0.149917D-02 -0.136041D-02 -0.974426D-03
     21  0.810115D-03 -0.107621D-02 -0.338887D-03  0.352791D-02 -0.581431D-02
     22  0.129332D-02 -0.142166D-02  0.996594D-03 -0.120401D-02 -0.374226D-02
     23 -0.208540D-02 -0.625693D-02  0.467956D-03  0.935053D-04 -0.240642D-03
     24  0.483482D-03 -0.402092D-02  0.194704D-02 -0.156152D-02 -0.338534D-02
     25  0.117779D-02 -0.901302D-03 -0.364049D-02 -0.601593D-02  0.201053D-03
     26 -0.518904D-02 -0.919349D-03 -0.682271D-03  0.231163D-03  0.266770D-03
     27 -0.149630D-02 -0.363909D-02 -0.574675D-03 -0.436109D-02 -0.254243D-02
               16            17            18            19            20 
     16  0.686223D-01
     17  0.205572D-01  0.533599D-01
     18 -0.810190D-02 -0.536573D-02  0.710784D-01
     19 -0.345176D-01 -0.789078D-02 -0.100772D-01  0.691101D-01
     20 -0.114260D-01 -0.179452D-02  0.201396D-03 -0.289518D-02  0.448437D-01
     21 -0.753019D-02  0.259041D-03 -0.333451D-02 -0.677620D-02 -0.135745D-01
     22 -0.553229D-02 -0.949945D-02 -0.318787D-02 -0.113716D-01  0.135307D-01
     23 -0.923897D-02 -0.257924D-01 -0.147779D-01  0.156961D-01 -0.137033D-01
     24 -0.238737D-02 -0.131032D-01 -0.860574D-02  0.391718D-02 -0.158190D-02
     25 -0.423935D-02 -0.252111D-03 -0.201150D-02 -0.346007D-02 -0.249255D-02
     26 -0.207972D-04 -0.355081D-02 -0.205440D-02 -0.650775D-02 -0.182655D-01
     27 -0.642804D-03  0.104865D-02 -0.128319D-02 -0.276117D-03  0.705902D-02
               21            22            23            24            25 
     21  0.494767D-01
     22  0.773423D-02  0.462553D-01
     23 -0.445398D-02  0.339335D-03  0.556640D-01
     24 -0.433324D-02 -0.183277D-01  0.716288D-02  0.562749D-01
     25 -0.190923D-02 -0.232914D-01 -0.101807D-01  0.126437D-01  0.673747D-01
     26  0.466213D-02 -0.667027D-02 -0.210442D-02  0.580016D-03 -0.196980D-03
     27  0.254635D-03  0.149977D-01  0.198077D-02 -0.586488D-02 -0.787010D-03
               26            27 
     26  0.595449D-01
     27  0.123777D-01  0.347036D-01
 Leave Link  716 at Thu Mar  8 14:09:38 2018, MaxMem=   536870912 cpu:         0.1
 (Enter /share/apps//mg09/l103.exe)

 GradGradGradGradGradGradGradGradGradGradGradGradGradGradGradGradGradGrad
 Berny optimization.
 Search for a local minimum.
 Step number   1 out of a maximum of    2
 All quantities printed in internal units (Hartrees-Bohrs-Radians)
 Second derivative matrix not updated -- analytic derivatives used.
 ITU=  0
     Eigenvalues ---    0.00251   0.00987   0.02323   0.03208   0.04232
     Eigenvalues ---    0.04643   0.05325   0.05935   0.06030   0.06305
     Eigenvalues ---    0.06925   0.07557   0.08343   0.09130   0.09692
     Eigenvalues ---    0.10874   0.11680   0.11952   0.13619   0.14290
     Eigenvalues ---    0.15993
 Angle between quadratic step and forces=  51.89 degrees.
 Linear search not attempted -- first point.
 TrRot=  0.000028  0.000045  0.000117 -0.000003 -0.000028 -0.000003
 MatCor failed.
 Variable       Old X    -DE/DX   Delta X   Delta X   Delta X     New X
                                 (Linear)    (Quad)   (Total)
    X1        4.95425   0.00002   0.00000   0.00032   0.00037   4.95462
    Y1       -1.51124  -0.00002   0.00000  -0.00304  -0.00302  -1.51427
    Z1       -1.15019   0.00002   0.00000  -0.00025   0.00001  -1.15018
    X2        1.58617   0.00003   0.00000   0.00291   0.00306   1.58923
    Y2        1.55351   0.00001   0.00000   0.00494   0.00498   1.55849
    Z2       -3.87572   0.00002   0.00000   0.00424   0.00440  -3.87132
    X3       -1.45755  -0.00004   0.00000  -0.00614  -0.00608  -1.46362
    Y3        4.39583   0.00001   0.00000  -0.00248  -0.00243   4.39340
    Z3       -0.45785   0.00004   0.00000   0.00301   0.00308  -0.45477
    X4        0.48174   0.00000   0.00000  -0.00063  -0.00056   0.48118
    Y4       -3.94849   0.00001   0.00000  -0.00210  -0.00206  -3.95055
    Z4       -2.29513   0.00000   0.00000   0.00262   0.00275  -2.29239
    X5       -3.37573  -0.00001   0.00000   0.00274   0.00285  -3.37288
    Y5       -0.29469  -0.00002   0.00000  -0.00190  -0.00184  -0.29653
    Z5       -3.01218   0.00001   0.00000  -0.00540  -0.00538  -3.01755
    X6       -2.88246   0.00002   0.00000  -0.00215  -0.00219  -2.88466
    Y6       -3.37292   0.00001   0.00000   0.00387   0.00393  -3.36899
    Z6        1.79584  -0.00001   0.00000  -0.00071  -0.00067   1.79517
    X7        2.14179   0.00001   0.00000  -0.00064  -0.00072   2.14107
    Y7       -2.43433   0.00001   0.00000  -0.00057  -0.00054  -2.43487
    Z7        3.29655  -0.00001   0.00000  -0.00089  -0.00071   3.29584
    X8       -1.40949  -0.00001   0.00000   0.00370   0.00361  -1.40588
    Y8        1.42048   0.00000   0.00000   0.00002   0.00007   1.42055
    Z8        4.50878   0.00002   0.00000   0.00367   0.00375   4.51253
    X9        3.40764  -0.00001   0.00000  -0.00032  -0.00034   3.40730
    Y9        2.86304  -0.00001   0.00000   0.00088   0.00091   2.86395
    Z9        1.99044  -0.00009   0.00000  -0.00744  -0.00723   1.98321
         Item               Value     Threshold  Converged?
 Maximum Force            0.000092     0.000450     YES
 RMS     Force            0.000024     0.000300     YES
 Maximum Displacement     0.007230     0.001800     NO 
 RMS     Displacement     0.003162     0.001200     NO 
 Predicted change in Energy=-6.348323D-07
 GradGradGradGradGradGradGradGradGradGradGradGradGradGradGradGradGradGrad

 Leave Link  103 at Thu Mar  8 14:09:38 2018, MaxMem=   536870912 cpu:         0.1
 (Enter /share/apps//mg09/l9999.exe)
 1\1\GINC-COMPUTE-0-0\Freq\RPBE1PBE\def2TZVP\Bi4Ge3Sn2\RODRIGO\08-Mar-2
 018\0\\#P Geom=AllCheck Guess=TCheck SCRF=Check GenChk RPBE1PBE/def2TZ
 VP Freq\\01Final_coords.xyz_08\\0,1\Bi,2.6216750387,-0.7997151649,-0.6
 086544809\Ge,0.8393646177,0.8220818939,-2.0509405011\Bi,-0.7713000248,
 2.32617184,-0.2422848543\Ge,0.2549266581,-2.0894518031,-1.2145330881\B
 i,-1.7863587746,-0.1559447261,-1.5939761774\Bi,-1.5253335615,-1.784873
 0863,0.9503190111\Ge,1.1333863578,-1.2881910687,1.7444606453\Sn,-0.745
 8710552,0.7516834108,2.3859420357\Sn,1.8032467438,1.5150557045,1.05329
 34096\\Version=ES64L-G09RevD.01\State=1-A\HF=-7517.8225137\RMSD=9.484e
 -09\RMSF=2.437e-05\ZeroPoint=0.0057756\Thermal=0.0232894\Dipole=-0.240
 9637,0.0650345,-0.239558\DipoleDeriv=0.1441045,-0.1035186,-0.0932836,-
 0.0747701,-0.0756521,0.0025622,-0.0326415,0.0008354,-0.0849747,-0.0392
 94,0.0290763,-0.0504957,0.0163935,0.0343158,-0.013633,0.0215342,0.0331
 721,0.0323328,-0.1004479,-0.0164791,0.0230608,-0.0403193,0.0481268,-0.
 049018,-0.0006946,-0.0678536,-0.2342441,-0.0394048,-0.0366692,-0.03246
 97,0.013115,0.0339146,0.0076538,-0.0027068,-0.0491293,0.0239001,0.0233
 36,-0.0042293,0.0650579,-0.0262159,-0.0978705,0.0426807,-0.0025057,0.0
 659485,0.0856335,-0.0421691,0.0646101,0.0023327,0.0497267,0.008177,-0.
 1189924,-0.0044531,-0.0959476,-0.1544236,-0.1209063,-0.055885,0.081165
 2,-0.0486548,0.0197914,-0.0133856,0.0359934,0.0164153,-0.0341918,0.030
 2151,-0.0446543,-0.1010622,-0.0659347,-0.0611605,0.102536,-0.0664471,0
 .0780097,0.2816304,0.1445665,0.167749,0.1056945,0.1766597,0.0903576,0.
 0395962,0.0519212,0.0185494,0.0843375\Polar=383.5335378,3.2864249,376.
 7240075,-2.4510673,8.3346998,375.7247269\PG=C01 [X(Bi4Ge3Sn2)]\NImag=0
 \\0.09351686,-0.00763273,0.05729238,-0.00692769,0.00811959,0.05795384,
 -0.02174176,0.01657415,-0.01304146,0.06776441,0.01562342,-0.01394095,0
 .01156599,-0.01188400,0.03863682,-0.01093202,0.01161855,-0.01243743,-0
 .00928210,-0.01124009,0.05383892,-0.00145987,0.00368306,-0.00064299,-0
 .01176977,0.01286697,0.01220159,0.05334528,-0.00046166,-0.00206729,-0.
 00025598,0.01166334,-0.01176384,-0.00884616,-0.01439131,0.07682580,-0.
 00008200,-0.00155151,0.00115116,0.01249908,-0.00957880,-0.01833460,0.0
 1060644,0.00942159,0.05675250,-0.04022258,-0.01907143,-0.00883228,0.00
 154562,-0.00059611,0.00347421,-0.00018203,0.00182460,0.00387591,0.0775
 7168,-0.01711321,-0.01070301,-0.00574623,-0.00018225,-0.00549884,-0.00
 148832,-0.00138303,-0.00532786,-0.00441761,-0.00059216,0.05174386,-0.0
 0808676,-0.00636871,-0.00264432,0.00374906,0.00117403,-0.00291089,0.00
 219514,0.00185819,-0.00057475,-0.00668588,0.01539407,0.03729389,-0.003
 09364,-0.00019435,-0.00175740,-0.03314394,-0.01016124,0.00129162,-0.00
 902140,-0.01184462,-0.00988452,-0.02198706,0.01555171,-0.00756635,0.07
 649248,0.00014319,-0.00118999,-0.00007880,-0.01021310,-0.00304711,0.00
 533726,-0.01130471,-0.03402993,-0.01739597,0.01719840,-0.01773087,0.00
 163416,0.00474889,0.06909127,0.00087242,-0.00058419,-0.00143975,0.0038
 2098,0.00482821,-0.00174940,-0.00910421,-0.01743452,-0.00889690,-0.005
 87090,0.00164010,0.00183475,0.02138789,-0.00718499,0.05136482,-0.00361
 798,-0.00254689,0.00111639,-0.00004880,0.00091385,0.00116079,0.0017253
 2,0.00257815,-0.00114501,-0.01711352,-0.00067930,0.01986317,-0.0052781
 3,-0.00013719,-0.00233308,0.06862233,0.00145372,0.00059509,0.00079405,
 -0.00084896,-0.00321620,-0.00059703,-0.00458672,-0.00456108,0.00229273
 ,0.00045235,-0.00298238,-0.00501218,0.00061475,-0.01205764,0.01968369,
 0.02055719,0.05335993,0.00061717,0.00236968,-0.00094526,0.00697914,0.0
 0439631,-0.00298148,0.00056247,0.00032696,-0.00029431,0.01972439,-0.00
 517932,-0.02426247,-0.00450472,0.02008304,-0.02937143,-0.00810190,-0.0
 0536573,0.07107838,-0.01521450,-0.00273083,0.01971498,0.00144991,-0.00
 399619,0.00103950,-0.00421400,-0.00038697,-0.00116487,-0.00045784,0.00
 192713,-0.00114541,-0.00132442,0.00678445,-0.00523188,-0.03451758,-0.0
 0789078,-0.01007718,0.06911014,-0.00111329,-0.00150975,0.00443270,0.00
 012730,-0.00324754,0.00157000,0.00064805,-0.00273626,0.00437102,0.0021
 2183,-0.00222648,-0.00150330,0.00149917,-0.00136041,-0.00097443,-0.011
 42604,-0.00179452,0.00020140,-0.00289518,0.04484369,0.01716341,0.00538
 971,-0.02682622,-0.00572229,0.00347684,-0.00621722,-0.00121614,-0.0000
 9725,-0.00212959,-0.00140471,0.00081011,-0.00107621,-0.00033889,0.0035
 2791,-0.00581431,-0.00753019,0.00025904,-0.00333451,-0.00677620,-0.013
 57451,0.04947666,-0.00128118,0.00046517,0.00202617,-0.00260104,-0.0007
 2184,0.00134864,-0.00240909,0.00246703,0.00057275,-0.00076529,0.001293
 32,-0.00142166,0.00099659,-0.00120401,-0.00374226,-0.00553229,-0.00949
 945,-0.00318787,-0.01137164,0.01353071,0.00773423,0.04625535,-0.000817
 42,-0.00340190,0.00049656,-0.00272677,0.00145050,0.00308540,0.00267332
 ,-0.01012063,0.01300388,0.00378709,-0.00208540,-0.00625693,0.00046796,
 0.00009351,-0.00024064,-0.00923897,-0.02579239,-0.01477794,0.01569613,
 -0.01370328,-0.00445398,0.00033933,0.05566401,-0.00020648,0.00030356,-
 0.00267342,0.00162582,-0.00391580,-0.00490358,0.00026067,0.01163251,-0
 .02248780,0.00052709,0.00048348,-0.00402092,0.00194704,-0.00156152,-0.
 00338534,-0.00238737,-0.01310323,-0.00860574,0.00391718,-0.00158190,-0
 .00433324,-0.01832768,0.00716288,0.05627492,-0.00688536,0.01145386,0.0
 0834428,-0.00145463,-0.00204486,-0.00030224,-0.02601444,0.00855144,-0.
 01527778,0.00161101,0.00117779,-0.00090130,-0.00364049,-0.00601593,0.0
 0020105,-0.00423935,-0.00025211,-0.00201150,-0.00346007,-0.00249255,-0
 .00190923,-0.02329142,-0.01018067,0.01264372,0.06737475,0.00991799,-0.
 02507458,-0.01932789,-0.00250972,0.00062716,0.00056037,0.01179438,-0.0
 0621891,0.00385465,-0.00512458,-0.00518904,-0.00091935,-0.00068227,0.0
 0023116,0.00026677,-0.00002080,-0.00355081,-0.00205440,-0.00650775,-0.
 01826545,0.00466213,-0.00667027,-0.00210442,0.00058002,-0.00019698,0.0
 5954490,0.00758196,-0.01929669,-0.01213861,-0.00062822,-0.00070670,-0.
 00430434,-0.01486296,0.00339465,-0.00518572,-0.00480784,-0.00149630,-0
 .00363909,-0.00057468,-0.00436109,-0.00254243,-0.00064280,0.00104865,-
 0.00128319,-0.00027612,0.00705902,0.00025464,0.01499767,0.00198077,-0.
 00586488,-0.00078701,0.01237769,0.03470362\\-0.00001603,0.00001812,-0.
 00001881,-0.00002835,-0.00001465,-0.00001567,0.00004121,-0.00000547,-0
 .00003629,-0.00000344,-0.00000686,-0.00000384,0.00001157,0.00001638,-0
 .00001222,-0.00001540,-0.00000794,0.00001254,-0.00001015,-0.00000838,0
 .00000721,0.00000989,-0.00000468,-0.00002481,0.00001069,0.00001350,0.0
 0009189\\\@


 "A LITTLE BIT GOES A LONG WAY"
 R.S. MULLIKEN AS QUOTED BY K. RUEDENBERG
 Job cpu time:       0 days  4 hours 23 minutes  5.4 seconds.
 File lengths (MBytes):  RWF=    299 Int=      0 D2E=      0 Chk=     16 Scr=      1
 Normal termination of Gaussian 09 at Thu Mar  8 14:09:40 2018.
