 Entering Gaussian System, Link 0=/share/apps/mg09/g09
 Initial command:
 /share/apps//mg09/l1.exe "/state/partition1/gauss_tmp/Gau-15030.inp" -scrdir="/state/partition1/gauss_tmp/"
 Entering Link 1 = /share/apps//mg09/l1.exe PID=     15032.
  
 Copyright (c) 1988,1990,1992,1993,1995,1998,2003,2009,2013,
            Gaussian, Inc.  All Rights Reserved.
  
 This is part of the Gaussian(R) 09 program.  It is based on
 the Gaussian(R) 03 system (copyright 2003, Gaussian, Inc.),
 the Gaussian(R) 98 system (copyright 1998, Gaussian, Inc.),
 the Gaussian(R) 94 system (copyright 1995, Gaussian, Inc.),
 the Gaussian 92(TM) system (copyright 1992, Gaussian, Inc.),
 the Gaussian 90(TM) system (copyright 1990, Gaussian, Inc.),
 the Gaussian 88(TM) system (copyright 1988, Gaussian, Inc.),
 the Gaussian 86(TM) system (copyright 1986, Carnegie Mellon
 University), and the Gaussian 82(TM) system (copyright 1983,
 Carnegie Mellon University). Gaussian is a federally registered
 trademark of Gaussian, Inc.
  
 This software contains proprietary and confidential information,
 including trade secrets, belonging to Gaussian, Inc.
  
 This software is provided under written license and may be
 used, copied, transmitted, or stored only in accord with that
 written license.
  
 The following legend is applicable only to US Government
 contracts under FAR:
  
                    RESTRICTED RIGHTS LEGEND
  
 Use, reproduction and disclosure by the US Government is
 subject to restrictions as set forth in subparagraphs (a)
 and (c) of the Commercial Computer Software - Restricted
 Rights clause in FAR 52.227-19.
  
 Gaussian, Inc.
 340 Quinnipiac St., Bldg. 40, Wallingford CT 06492
  
  
 ---------------------------------------------------------------
 Warning -- This program may not be used in any manner that
 competes with the business of Gaussian, Inc. or will provide
 assistance to any competitor of Gaussian, Inc.  The licensee
 of this program is prohibited from giving any competitor of
 Gaussian, Inc. access to this program.  By using this program,
 the user acknowledges that Gaussian, Inc. is engaged in the
 business of creating and licensing software in the field of
 computational chemistry and represents and warrants to the
 licensee that it is not a competitor of Gaussian, Inc. and that
 it will not use this program in any manner prohibited above.
 ---------------------------------------------------------------
  

 Cite this work as:
 Gaussian 09, Revision D.01,
 M. J. Frisch, G. W. Trucks, H. B. Schlegel, G. E. Scuseria, 
 M. A. Robb, J. R. Cheeseman, G. Scalmani, V. Barone, B. Mennucci, 
 G. A. Petersson, H. Nakatsuji, M. Caricato, X. Li, H. P. Hratchian, 
 A. F. Izmaylov, J. Bloino, G. Zheng, J. L. Sonnenberg, M. Hada, 
 M. Ehara, K. Toyota, R. Fukuda, J. Hasegawa, M. Ishida, T. Nakajima, 
 Y. Honda, O. Kitao, H. Nakai, T. Vreven, J. A. Montgomery, Jr., 
 J. E. Peralta, F. Ogliaro, M. Bearpark, J. J. Heyd, E. Brothers, 
 K. N. Kudin, V. N. Staroverov, T. Keith, R. Kobayashi, J. Normand, 
 K. Raghavachari, A. Rendell, J. C. Burant, S. S. Iyengar, J. Tomasi, 
 M. Cossi, N. Rega, J. M. Millam, M. Klene, J. E. Knox, J. B. Cross, 
 V. Bakken, C. Adamo, J. Jaramillo, R. Gomperts, R. E. Stratmann, 
 O. Yazyev, A. J. Austin, R. Cammi, C. Pomelli, J. W. Ochterski, 
 R. L. Martin, K. Morokuma, V. G. Zakrzewski, G. A. Voth, 
 P. Salvador, J. J. Dannenberg, S. Dapprich, A. D. Daniels, 
 O. Farkas, J. B. Foresman, J. V. Ortiz, J. Cioslowski, 
 and D. J. Fox, Gaussian, Inc., Wallingford CT, 2013.
 
 ******************************************
 Gaussian 09:  ES64L-G09RevD.01 24-Apr-2013
                 6-Mar-2018 
 ******************************************
 %NProcShared=4
 Will use up to    4 processors via shared memory.
 %LindaWorkers=compute-0-0
 %chk=Isomer_52.chk
 %NProc=4
 Will use up to    4 processors via shared memory.
 %mem=4GB
 SetLPE:  input flags=" -vv -opt "Tsnet.Node.lindarsharg: ssh" "
 SetLPE:    new flags=" -vv -opt "Tsnet.Node.lindarsharg: ssh"  -nodelist 'compute-0-0.local'"
 Will use up to    1 processors via Linda.
 ----------------------------------------------------------------------
 #p PBE1PBE/Def2TZVP scf=(maxcycle=768) opt=(cartesian,maxcycle=512) fr
 eq
 ----------------------------------------------------------------------
 1/6=512,10=7,14=-1,18=10,26=3,38=1/1,3;
 2/12=2,17=6,18=5,29=2,40=1/2;
 3/5=44,7=101,11=2,16=1,25=1,30=1,71=1,74=-13/1,2,3;
 4//1;
 5/5=2,7=768,38=5/2;
 6/7=2,8=2,9=2,10=2,28=1/1;
 7/7=1,29=1/1,2,3,16;
 1/6=512,10=7,14=-1,18=10,26=3/3(2);
 2/29=1/2;
 99/12=1/99;
 2/29=1/2;
 3/5=44,7=101,11=2,16=1,25=1,30=1,71=1,74=-13/1,2,3;
 4/5=5,16=3,69=1/1;
 5/5=2,7=768,38=5/2;
 7/7=1/1,2,3,16;
 1/6=512,14=-1,18=10,26=3/3(-5);
 2/29=1/2;
 6/7=2,8=2,9=2,10=2,19=2,28=1/1;
 99/9=1,12=1/99;
 Leave Link    1 at Tue Mar  6 15:54:43 2018, MaxMem=   536870912 cpu:         0.3
 (Enter /share/apps//mg09/l101.exe)
 ---------------------
 01Final_coords.xyz_52
 ---------------------
 Symbolic Z-matrix:
 Charge =  0 Multiplicity = 1
 50                   -2.07147  -0.348    -1.94809 
 32                    0.00393   1.21998   2.28516 
 83                   -1.04805   2.05441  -0.39872 
 83                    2.2653   -1.32489  -0.20378 
 32                    0.77269   0.12938  -2.23799 
 32                    0.47116  -1.51009   2.12476 
 83                   -2.07104  -0.55836   1.18868 
 83                    1.88775   1.64816   0.10337 
 50                   -0.44348  -2.56921  -0.58663 
 
 NAtoms=      9 NQM=        9 NQMF=       0 NMMI=      0 NMMIF=      0
                NMic=       0 NMicF=      0.
                    Isotopes and Nuclear Properties:
 (Nuclear quadrupole moments (NQMom) in fm**2, nuclear magnetic moments (NMagM)
  in nuclear magnetons)

  Atom         1           2           3           4           5           6           7           8           9
 IAtWgt=         118          74         209         209          74          74         209         209         118
 AtmWgt= 117.9018000  73.9211788 208.9804000 208.9804000  73.9211788  73.9211788 208.9804000 208.9804000 117.9018000
 NucSpn=           0           0           9           9           0           0           9           9           0
 AtZEff=   0.0000000   0.0000000   0.0000000   0.0000000   0.0000000   0.0000000   0.0000000   0.0000000   0.0000000
 NQMom=    0.0000000   0.0000000 -51.6000000 -51.6000000   0.0000000   0.0000000 -51.6000000 -51.6000000   0.0000000
 NMagM=    0.0000000   0.0000000   4.1106000   4.1106000   0.0000000   0.0000000   4.1106000   4.1106000   0.0000000
 AtZNuc=  50.0000000  32.0000000  83.0000000  83.0000000  32.0000000  32.0000000  83.0000000  83.0000000  50.0000000
 Leave Link  101 at Tue Mar  6 15:54:44 2018, MaxMem=   536870912 cpu:         0.2
 (Enter /share/apps//mg09/l103.exe)

 GradGradGradGradGradGradGradGradGradGradGradGradGradGradGradGradGradGrad
 Berny optimization.
 Initialization pass.
 No Z-matrix variables, so optimization will use Cartesian coordinates.
 Trust Radius=3.00D-01 FncErr=1.00D-07 GrdErr=1.00D-06
 Number of steps in this run=    100 maximum allowed number of steps=    100.
 GradGradGradGradGradGradGradGradGradGradGradGradGradGradGradGradGradGrad

 Leave Link  103 at Tue Mar  6 15:54:44 2018, MaxMem=   536870912 cpu:         0.1
 (Enter /share/apps//mg09/l202.exe)
 ---------------------------------------------------------------------------------------------------
                            Z-MATRIX (ANGSTROMS AND DEGREES)
   CD    Cent   Atom    N1       Length/X        N2       Alpha/Y        N3        Beta/Z          J
 ---------------------------------------------------------------------------------------------------
      1      1  Sn       0  -2.071468         -0.347997         -1.948086
      2      2  Ge       0   0.003931          1.219980          2.285164
      3      3  Bi       0  -1.048052          2.054411         -0.398717
      4      4  Bi       0   2.265304         -1.324893         -0.203775
      5      5  Ge       0   0.772694          0.129383         -2.237986
      6      6  Ge       0   0.471162         -1.510086          2.124759
      7      7  Bi       0  -2.071043         -0.558362          1.188684
      8      8  Bi       0   1.887745          1.648162          0.103374
      9      9  Sn       0  -0.443479         -2.569206         -0.586632
 ---------------------------------------------------------------------------------------------------
                         Z-Matrix orientation:                         
 ---------------------------------------------------------------------
 Center     Atomic      Atomic             Coordinates (Angstroms)
 Number     Number       Type             X           Y           Z
 ---------------------------------------------------------------------
      1         50           0       -2.071468   -0.347997   -1.948086
      2         32           0        0.003931    1.219980    2.285164
      3         83           0       -1.048052    2.054411   -0.398717
      4         83           0        2.265304   -1.324893   -0.203775
      5         32           0        0.772694    0.129383   -2.237986
      6         32           0        0.471162   -1.510086    2.124759
      7         83           0       -2.071043   -0.558362    1.188684
      8         83           0        1.887745    1.648162    0.103374
      9         50           0       -0.443479   -2.569206   -0.586632
 ---------------------------------------------------------------------
                    Distance matrix (angstroms):
                    1          2          3          4          5
     1  Sn   0.000000
     2  Ge   4.968525   0.000000
     3  Bi   3.036361   3.001027   0.000000
     4  Bi   4.775410   4.217227   4.736668   0.000000
     5  Ge   2.898481   4.715855   3.225486   2.912184   0.000000
     6  Ge   4.939988   2.774400   4.624022   2.945388   4.670367
     7  Bi   3.143816   2.944535   3.223808   4.618486   4.505763
     8  Bi   4.885541   2.914156   3.006000   3.012631   3.005328
     9  Sn   3.072080   4.775491   4.666761   3.005395   3.389459
                    6          7          8          9
     6  Ge   0.000000
     7  Bi   2.871380   0.000000
     8  Bi   4.008396   4.660327   0.000000
     9  Sn   3.051220   3.137548   4.867947   0.000000
 Stoichiometry    Bi4Ge3Sn2
 Framework group  C1[X(Bi4Ge3Sn2)]
 Deg. of freedom    21
 Full point group                 C1      NOp   1
 Largest Abelian subgroup         C1      NOp   1
 Largest concise Abelian subgroup C1      NOp   1
                         Standard orientation:                         
 ---------------------------------------------------------------------
 Center     Atomic      Atomic             Coordinates (Angstroms)
 Number     Number       Type             X           Y           Z
 ---------------------------------------------------------------------
      1         50           0        2.071468    0.347995   -1.948086
      2         32           0       -0.003932   -1.219980    2.285164
      3         83           0        1.048050   -2.054412   -0.398717
      4         83           0       -2.265303    1.324895   -0.203775
      5         32           0       -0.772694   -0.129382   -2.237986
      6         32           0       -0.471160    1.510087    2.124759
      7         83           0        2.071044    0.558360    1.188684
      8         83           0       -1.887747   -1.648160    0.103374
      9         50           0        0.443482    2.569206   -0.586632
 ---------------------------------------------------------------------
 Rotational constants (GHZ):      0.1037691      0.0927301      0.0779081
 Leave Link  202 at Tue Mar  6 15:54:44 2018, MaxMem=   536870912 cpu:         0.1
 (Enter /share/apps//mg09/l301.exe)
 Standard basis: def2TZVP (5D, 7F)
 Ernie: Thresh=  0.10000D-02 Tol=  0.10000D-05 Strict=F.
 There are   519 symmetry adapted cartesian basis functions of A   symmetry.
 There are   444 symmetry adapted basis functions of A   symmetry.
   444 basis functions,   963 primitive gaussians,   519 cartesian basis functions
   116 alpha electrons      116 beta electrons
       nuclear repulsion energy      3530.1088342783 Hartrees.
 IExCor= 1009 DFT=T Ex+Corr=PBE1PBE ExCW=0 ScaHFX=  0.250000
 ScaDFX=  0.750000  0.750000  1.000000  1.000000 ScalE2=  1.000000  1.000000
 IRadAn=      0 IRanWt=     -1 IRanGd=            0 ICorTp=0 IEmpDi=  4
 NAtoms=    9 NActive=    9 NUniq=    9 SFac= 1.00D+00 NAtFMM=   60 NAOKFM=F Big=F
 Integral buffers will be    131072 words long.
 Raffenetti 2 integral format.
 Two-electron integral symmetry is turned on.
 Leave Link  301 at Tue Mar  6 15:54:44 2018, MaxMem=   536870912 cpu:         0.3
 (Enter /share/apps//mg09/l302.exe)
 NPDir=0 NMtPBC=     1 NCelOv=     1 NCel=       1 NClECP=     1 NCelD=      1
         NCelK=      1 NCelE2=     1 NClLst=     1 CellRange=     0.0.
 One-electron integrals computed using PRISM.
   1 Symmetry operations used in ECPInt.
 ECPInt:  NShTT=   10440 NPrTT=   41973 LenC2=    9651 LenP2D=   27464.
 LDataN:  DoStor=T MaxTD1= 8 Len=  415
 NBasis=   444 RedAO= T EigKep=  1.32D-03  NBF=   444
 NBsUse=   444 1.00D-06 EigRej= -1.00D+00 NBFU=   444
 Precomputing XC quadrature grid using
 IXCGrd= 4 IRadAn=           0 IRanWt=          -1 IRanGd=           0 AccXCQ= 0.00D+00.
 Defaulting to unpruned grid for atomic number  50.
 Defaulting to unpruned grid for atomic number  83.
 Defaulting to unpruned grid for atomic number  83.
 Generated NRdTot=       0 NPtTot=           0 NUsed=           0 NTot=          32
 NSgBfM=   502   504   504   504   504 MxSgAt=     9 MxSgA2=     9.
 Leave Link  302 at Tue Mar  6 15:54:52 2018, MaxMem=   536870912 cpu:        32.8
 (Enter /share/apps//mg09/l303.exe)
 DipDrv:  MaxL=1.
 Leave Link  303 at Tue Mar  6 15:54:53 2018, MaxMem=   536870912 cpu:         0.3
 (Enter /share/apps//mg09/l401.exe)
 ExpMin= 4.62D-02 ExpMax= 4.66D+05 ExpMxC= 4.50D+03 IAcc=2 IRadAn=         4 AccDes= 0.00D+00
 Harris functional with IExCor= 1009 and IRadAn=       4 diagonalized for initial guess.
 HarFok:  IExCor= 1009 AccDes= 0.00D+00 IRadAn=         4 IDoV= 1 UseB2=F ITyADJ=14
 ICtDFT=  3500011 ScaDFX=  1.000000  1.000000  1.000000  1.000000
 Defaulting to unpruned grid for atomic number  50.
 Defaulting to unpruned grid for atomic number  50.
 Defaulting to unpruned grid for atomic number  50.
 Defaulting to unpruned grid for atomic number  50.
 FoFCou: FMM=F IPFlag=           0 FMFlag=      100000 FMFlg1=           0
         NFxFlg=           0 DoJE=T BraDBF=F KetDBF=T FulRan=T
         wScrn=  0.000000 ICntrl=     500 IOpCl=  0 I1Cent=   200000004 NGrid=           0
         NMat0=    1 NMatS0=      1 NMatT0=    0 NMatD0=    1 NMtDS0=    0 NMtDT0=    0
 Petite list used in FoFCou.
 Harris En= -7518.59587462782    
 JPrj=0 DoOrth=F DoCkMO=F.
 Leave Link  401 at Tue Mar  6 15:54:56 2018, MaxMem=   536870912 cpu:        12.3
 (Enter /share/apps//mg09/l502.exe)
 Closed shell SCF:
 Using DIIS extrapolation, IDIIS=  1040.
 Integral symmetry usage will be decided dynamically.
 IVT=     1410107 IEndB=     1410107 NGot=   536870912 MDV=   536322046
 LenX=   536322046 LenY=   536052166
 Requested convergence on RMS density matrix=1.00D-08 within 768 cycles.
 Requested convergence on MAX density matrix=1.00D-06.
 Requested convergence on             energy=1.00D-06.
 No special actions if energy rises.
 Fock matrices will be formed incrementally for  20 cycles.

 Cycle   1  Pass 1  IDiag  1:
 FoFJK:  IHMeth= 1 ICntrl=       0 DoSepK=F KAlg= 0 I1Cent=   0 FoldK=F
 IRaf= 880000000 NMat=   1 IRICut=       1 DoRegI=T DoRafI=F ISym2E= 0.
 FoFCou: FMM=F IPFlag=           0 FMFlag=      100000 FMFlg1=           0
         NFxFlg=           0 DoJE=F BraDBF=F KetDBF=F FulRan=T
         wScrn=  0.000000 ICntrl=       0 IOpCl=  0 I1Cent=           0 NGrid=           0
         NMat0=    1 NMatS0=      1 NMatT0=    0 NMatD0=    1 NMtDS0=    0 NMtDT0=    0
 Symmetry not used in FoFCou.
 Defaulting to unpruned grid for atomic number  50.
 Defaulting to unpruned grid for atomic number  50.
 Defaulting to unpruned grid for atomic number  50.
 Defaulting to unpruned grid for atomic number  50.
 E= -7517.26788802573    
 DIIS: error= 2.74D-02 at cycle   1 NSaved=   1.
 NSaved= 1 IEnMin= 1 EnMin= -7517.26788802573     IErMin= 1 ErrMin= 2.74D-02
 ErrMax= 2.74D-02  0.00D+00 EMaxC= 1.00D-01 BMatC= 1.43D+00 BMatP= 1.43D+00
 IDIUse=3 WtCom= 7.26D-01 WtEn= 2.74D-01
 Coeff-Com:  0.100D+01
 Coeff-En:   0.100D+01
 Coeff:      0.100D+01
 Gap=     0.123 Goal=   None    Shift=    0.000
 GapD=    0.123 DampG=1.000 DampE=0.500 DampFc=0.5000 IDamp=-1.
 Damping current iteration by 5.00D-01
 RMSDP=4.66D-03 MaxDP=2.05D-01              OVMax= 4.19D-01

 Cycle   2  Pass 1  IDiag  1:
 RMSU=  2.32D-03    CP:  1.00D+00
 E= -7517.37852142302     Delta-E=       -0.110633397286 Rises=F Damp=T
 DIIS: error= 7.28D-03 at cycle   2 NSaved=   2.
 NSaved= 2 IEnMin= 2 EnMin= -7517.37852142302     IErMin= 2 ErrMin= 7.28D-03
 ErrMax= 7.28D-03  0.00D+00 EMaxC= 1.00D-01 BMatC= 1.60D-01 BMatP= 1.43D+00
 IDIUse=3 WtCom= 9.27D-01 WtEn= 7.28D-02
 Coeff-Com:  0.465D-01 0.954D+00
 Coeff-En:   0.390D+00 0.610D+00
 Coeff:      0.715D-01 0.928D+00
 Gap=     0.153 Goal=   None    Shift=    0.000
 RMSDP=2.52D-03 MaxDP=1.66D-01 DE=-1.11D-01 OVMax= 4.32D-01

 Cycle   3  Pass 1  IDiag  1:
 RMSU=  2.11D-03    CP:  1.01D+00  4.05D-01
 E= -7517.08419892979     Delta-E=        0.294322493224 Rises=F Damp=F
 DIIS: error= 1.98D-02 at cycle   3 NSaved=   3.
 NSaved= 3 IEnMin= 2 EnMin= -7517.37852142302     IErMin= 2 ErrMin= 7.28D-03
 ErrMax= 1.98D-02  0.00D+00 EMaxC= 1.00D-01 BMatC= 5.79D-01 BMatP= 1.60D-01
 IDIUse=2 WtCom= 0.00D+00 WtEn= 1.00D+00
 EnCoef did     4 forward-backward iterations
 Coeff-En:   0.424D-01 0.625D+00 0.333D+00
 Coeff:      0.424D-01 0.625D+00 0.333D+00
 Gap=     0.178 Goal=   None    Shift=    0.000
 RMSDP=2.71D-03 MaxDP=1.43D-01 DE= 2.94D-01 OVMax= 2.90D-01

 Cycle   4  Pass 1  IDiag  1:
 RMSU=  8.98D-04    CP:  1.00D+00  9.73D-01 -3.53D-02
 E= -7517.63511497562     Delta-E=       -0.550916045824 Rises=F Damp=F
 DIIS: error= 1.11D-02 at cycle   4 NSaved=   4.
 NSaved= 4 IEnMin= 4 EnMin= -7517.63511497562     IErMin= 2 ErrMin= 7.28D-03
 ErrMax= 1.11D-02  0.00D+00 EMaxC= 1.00D-01 BMatC= 1.24D-01 BMatP= 1.60D-01
 IDIUse=3 WtCom= 8.89D-01 WtEn= 1.11D-01
 Coeff-Com: -0.561D-02 0.275D+00 0.285D+00 0.445D+00
 Coeff-En:   0.000D+00 0.000D+00 0.264D+00 0.736D+00
 Coeff:     -0.499D-02 0.245D+00 0.282D+00 0.478D+00
 Gap=     0.130 Goal=   None    Shift=    0.000
 RMSDP=1.25D-03 MaxDP=5.51D-02 DE=-5.51D-01 OVMax= 1.44D-01

 Cycle   5  Pass 1  IDiag  1:
 RMSU=  6.15D-04    CP:  1.00D+00  7.80D-01  3.43D-01  3.48D-01
 E= -7517.77750511653     Delta-E=       -0.142390140914 Rises=F Damp=F
 DIIS: error= 4.17D-03 at cycle   5 NSaved=   5.
 NSaved= 5 IEnMin= 5 EnMin= -7517.77750511653     IErMin= 5 ErrMin= 4.17D-03
 ErrMax= 4.17D-03  0.00D+00 EMaxC= 1.00D-01 BMatC= 2.49D-02 BMatP= 1.24D-01
 IDIUse=3 WtCom= 9.58D-01 WtEn= 4.17D-02
 Coeff-Com:  0.575D-02-0.152D-01 0.107D+00 0.375D+00 0.528D+00
 Coeff-En:   0.000D+00 0.000D+00 0.000D+00 0.195D+00 0.805D+00
 Coeff:      0.551D-02-0.146D-01 0.102D+00 0.367D+00 0.539D+00
 Gap=     0.116 Goal=   None    Shift=    0.000
 RMSDP=4.26D-04 MaxDP=1.97D-02 DE=-1.42D-01 OVMax= 4.49D-02

 Cycle   6  Pass 1  IDiag  1:
 RMSU=  1.72D-04    CP:  1.00D+00  7.79D-01  2.40D-01  5.92D-01  6.18D-01
 E= -7517.80200317405     Delta-E=       -0.024498057515 Rises=F Damp=F
 DIIS: error= 1.23D-03 at cycle   6 NSaved=   6.
 NSaved= 6 IEnMin= 6 EnMin= -7517.80200317405     IErMin= 6 ErrMin= 1.23D-03
 ErrMax= 1.23D-03  0.00D+00 EMaxC= 1.00D-01 BMatC= 1.56D-03 BMatP= 2.49D-02
 IDIUse=3 WtCom= 9.88D-01 WtEn= 1.23D-02
 Coeff-Com:  0.367D-02-0.182D-01 0.147D-01 0.102D+00 0.268D+00 0.630D+00
 Coeff-En:   0.000D+00 0.000D+00 0.000D+00 0.000D+00 0.415D-01 0.959D+00
 Coeff:      0.362D-02-0.180D-01 0.145D-01 0.101D+00 0.265D+00 0.634D+00
 Gap=     0.117 Goal=   None    Shift=    0.000
 RMSDP=1.64D-04 MaxDP=8.19D-03 DE=-2.45D-02 OVMax= 1.96D-02

 Cycle   7  Pass 1  IDiag  1:
 RMSU=  1.07D-04    CP:  1.00D+00  7.82D-01  2.59D-01  5.83D-01  6.95D-01
                    CP:  3.81D-01
 E= -7517.80230003760     Delta-E=       -0.000296863553 Rises=F Damp=F
 DIIS: error= 7.34D-04 at cycle   7 NSaved=   7.
 NSaved= 7 IEnMin= 7 EnMin= -7517.80230003760     IErMin= 7 ErrMin= 7.34D-04
 ErrMax= 7.34D-04  0.00D+00 EMaxC= 1.00D-01 BMatC= 9.23D-04 BMatP= 1.56D-03
 IDIUse=3 WtCom= 9.93D-01 WtEn= 7.34D-03
 Coeff-Com:  0.301D-02-0.128D-01 0.279D-03 0.429D-01 0.155D+00 0.486D+00
 Coeff-Com:  0.326D+00
 Coeff-En:   0.000D+00 0.000D+00 0.000D+00 0.000D+00 0.000D+00 0.454D+00
 Coeff-En:   0.546D+00
 Coeff:      0.299D-02-0.127D-01 0.277D-03 0.425D-01 0.153D+00 0.486D+00
 Coeff:      0.327D+00
 Gap=     0.116 Goal=   None    Shift=    0.000
 RMSDP=9.85D-05 MaxDP=4.03D-03 DE=-2.97D-04 OVMax= 1.24D-02

 Cycle   8  Pass 1  IDiag  1:
 RMSU=  4.87D-05    CP:  1.00D+00  7.84D-01  2.59D-01  5.83D-01  6.92D-01
                    CP:  6.55D-01  3.34D-01
 E= -7517.80332141599     Delta-E=       -0.001021378388 Rises=F Damp=F
 DIIS: error= 3.35D-04 at cycle   8 NSaved=   8.
 NSaved= 8 IEnMin= 8 EnMin= -7517.80332141599     IErMin= 8 ErrMin= 3.35D-04
 ErrMax= 3.35D-04  0.00D+00 EMaxC= 1.00D-01 BMatC= 1.31D-04 BMatP= 9.23D-04
 IDIUse=3 WtCom= 9.97D-01 WtEn= 3.35D-03
 Coeff-Com:  0.167D-02-0.610D-02-0.244D-02 0.150D-01 0.683D-01 0.264D+00
 Coeff-Com:  0.259D+00 0.400D+00
 Coeff-En:   0.000D+00 0.000D+00 0.000D+00 0.000D+00 0.000D+00 0.000D+00
 Coeff-En:   0.165D+00 0.835D+00
 Coeff:      0.166D-02-0.608D-02-0.243D-02 0.149D-01 0.681D-01 0.263D+00
 Coeff:      0.259D+00 0.402D+00
 Gap=     0.116 Goal=   None    Shift=    0.000
 RMSDP=3.93D-05 MaxDP=3.01D-03 DE=-1.02D-03 OVMax= 4.90D-03

 Cycle   9  Pass 1  IDiag  1:
 RMSU=  1.70D-05    CP:  1.00D+00  7.85D-01  2.56D-01  5.78D-01  6.97D-01
                    CP:  6.66D-01  4.70D-01  3.67D-01
 E= -7517.80347797082     Delta-E=       -0.000156554832 Rises=F Damp=F
 DIIS: error= 1.05D-04 at cycle   9 NSaved=   9.
 NSaved= 9 IEnMin= 9 EnMin= -7517.80347797082     IErMin= 9 ErrMin= 1.05D-04
 ErrMax= 1.05D-04  0.00D+00 EMaxC= 1.00D-01 BMatC= 1.63D-05 BMatP= 1.31D-04
 IDIUse=3 WtCom= 9.99D-01 WtEn= 1.05D-03
 Coeff-Com:  0.617D-03-0.137D-02-0.235D-02 0.426D-03 0.145D-01 0.916D-01
 Coeff-Com:  0.111D+00 0.285D+00 0.500D+00
 Coeff-En:   0.000D+00 0.000D+00 0.000D+00 0.000D+00 0.000D+00 0.000D+00
 Coeff-En:   0.000D+00 0.139D+00 0.861D+00
 Coeff:      0.616D-03-0.137D-02-0.235D-02 0.425D-03 0.145D-01 0.915D-01
 Coeff:      0.111D+00 0.285D+00 0.500D+00
 Gap=     0.116 Goal=   None    Shift=    0.000
 RMSDP=1.36D-05 MaxDP=8.30D-04 DE=-1.57D-04 OVMax= 1.59D-03

 Cycle  10  Pass 1  IDiag  1:
 RMSU=  7.01D-06    CP:  1.00D+00  7.84D-01  2.56D-01  5.80D-01  6.98D-01
                    CP:  6.58D-01  4.75D-01  5.33D-01  5.84D-01
 E= -7517.80349410425     Delta-E=       -0.000016133436 Rises=F Damp=F
 DIIS: error= 4.66D-05 at cycle  10 NSaved=  10.
 NSaved=10 IEnMin=10 EnMin= -7517.80349410425     IErMin=10 ErrMin= 4.66D-05
 ErrMax= 4.66D-05  0.00D+00 EMaxC= 1.00D-01 BMatC= 2.64D-06 BMatP= 1.63D-05
 IDIUse=1 WtCom= 1.00D+00 WtEn= 0.00D+00
 Coeff-Com:  0.391D-03-0.797D-03-0.160D-02-0.326D-03 0.703D-02 0.547D-01
 Coeff-Com:  0.687D-01 0.191D+00 0.378D+00 0.303D+00
 Coeff:      0.391D-03-0.797D-03-0.160D-02-0.326D-03 0.703D-02 0.547D-01
 Coeff:      0.687D-01 0.191D+00 0.378D+00 0.303D+00
 Gap=     0.116 Goal=   None    Shift=    0.000
 RMSDP=5.23D-06 MaxDP=2.24D-04 DE=-1.61D-05 OVMax= 7.29D-04

 Cycle  11  Pass 1  IDiag  1:
 RMSU=  3.05D-06    CP:  1.00D+00  7.84D-01  2.56D-01  5.81D-01  6.99D-01
                    CP:  6.61D-01  4.71D-01  5.41D-01  6.81D-01  4.55D-01
 E= -7517.80349738899     Delta-E=       -0.000003284738 Rises=F Damp=F
 DIIS: error= 1.31D-05 at cycle  11 NSaved=  11.
 NSaved=11 IEnMin=11 EnMin= -7517.80349738899     IErMin=11 ErrMin= 1.31D-05
 ErrMax= 1.31D-05  0.00D+00 EMaxC= 1.00D-01 BMatC= 3.04D-07 BMatP= 2.64D-06
 IDIUse=1 WtCom= 1.00D+00 WtEn= 0.00D+00
 Coeff-Com:  0.557D-04-0.116D-03-0.209D-03-0.482D-03-0.190D-02 0.182D-02
 Coeff-Com:  0.286D-02 0.243D-01 0.946D-01 0.239D+00 0.640D+00
 Coeff:      0.557D-04-0.116D-03-0.209D-03-0.482D-03-0.190D-02 0.182D-02
 Coeff:      0.286D-02 0.243D-01 0.946D-01 0.239D+00 0.640D+00
 Gap=     0.116 Goal=   None    Shift=    0.000
 RMSDP=1.71D-06 MaxDP=7.92D-05 DE=-3.28D-06 OVMax= 2.22D-04

 Cycle  12  Pass 1  IDiag  1:
 RMSU=  1.01D-06    CP:  1.00D+00  7.84D-01  2.55D-01  5.81D-01  6.99D-01
                    CP:  6.63D-01  4.75D-01  5.42D-01  7.07D-01  5.89D-01
                    CP:  8.19D-01
 E= -7517.80349772033     Delta-E=       -0.000000331340 Rises=F Damp=F
 DIIS: error= 5.15D-06 at cycle  12 NSaved=  12.
 NSaved=12 IEnMin=12 EnMin= -7517.80349772033     IErMin=12 ErrMin= 5.15D-06
 ErrMax= 5.15D-06  0.00D+00 EMaxC= 1.00D-01 BMatC= 2.84D-08 BMatP= 3.04D-07
 IDIUse=1 WtCom= 1.00D+00 WtEn= 0.00D+00
 Coeff-Com: -0.276D-05 0.603D-05 0.577D-04-0.252D-03-0.184D-02-0.392D-02
 Coeff-Com: -0.574D-02-0.657D-02 0.881D-02 0.108D+00 0.352D+00 0.550D+00
 Coeff:     -0.276D-05 0.603D-05 0.577D-04-0.252D-03-0.184D-02-0.392D-02
 Coeff:     -0.574D-02-0.657D-02 0.881D-02 0.108D+00 0.352D+00 0.550D+00
 Gap=     0.116 Goal=   None    Shift=    0.000
 RMSDP=6.56D-07 MaxDP=4.15D-05 DE=-3.31D-07 OVMax= 9.61D-05

 Cycle  13  Pass 1  IDiag  1:
 RMSU=  3.60D-07    CP:  1.00D+00  7.84D-01  2.56D-01  5.81D-01  6.99D-01
                    CP:  6.64D-01  4.76D-01  5.45D-01  7.14D-01  6.15D-01
                    CP:  8.69D-01  7.03D-01
 E= -7517.80349775683     Delta-E=       -0.000000036496 Rises=F Damp=F
 DIIS: error= 1.44D-06 at cycle  13 NSaved=  13.
 NSaved=13 IEnMin=13 EnMin= -7517.80349775683     IErMin=13 ErrMin= 1.44D-06
 ErrMax= 1.44D-06  0.00D+00 EMaxC= 1.00D-01 BMatC= 3.53D-09 BMatP= 2.84D-08
 IDIUse=1 WtCom= 1.00D+00 WtEn= 0.00D+00
 Coeff-Com: -0.963D-05 0.178D-04 0.723D-04-0.949D-04-0.952D-03-0.314D-02
 Coeff-Com: -0.460D-02-0.823D-02-0.103D-01 0.318D-01 0.116D+00 0.310D+00
 Coeff-Com:  0.570D+00
 Coeff:     -0.963D-05 0.178D-04 0.723D-04-0.949D-04-0.952D-03-0.314D-02
 Coeff:     -0.460D-02-0.823D-02-0.103D-01 0.318D-01 0.116D+00 0.310D+00
 Coeff:      0.570D+00
 Gap=     0.116 Goal=   None    Shift=    0.000
 RMSDP=2.08D-07 MaxDP=9.05D-06 DE=-3.65D-08 OVMax= 3.26D-05

 Cycle  14  Pass 1  IDiag  1:
 RMSU=  1.18D-07    CP:  1.00D+00  7.84D-01  2.55D-01  5.81D-01  6.99D-01
                    CP:  6.64D-01  4.77D-01  5.47D-01  7.16D-01  6.25D-01
                    CP:  8.78D-01  8.06D-01  8.68D-01
 E= -7517.80349776072     Delta-E=       -0.000000003896 Rises=F Damp=F
 DIIS: error= 2.82D-07 at cycle  14 NSaved=  14.
 NSaved=14 IEnMin=14 EnMin= -7517.80349776072     IErMin=14 ErrMin= 2.82D-07
 ErrMax= 2.82D-07  0.00D+00 EMaxC= 1.00D-01 BMatC= 2.06D-10 BMatP= 3.53D-09
 IDIUse=1 WtCom= 1.00D+00 WtEn= 0.00D+00
 Coeff-Com: -0.230D-05 0.485D-05 0.160D-04-0.323D-05-0.871D-04-0.602D-03
 Coeff-Com: -0.982D-03-0.217D-02-0.523D-02-0.301D-02-0.180D-02 0.497D-01
 Coeff-Com:  0.225D+00 0.739D+00
 Coeff:     -0.230D-05 0.485D-05 0.160D-04-0.323D-05-0.871D-04-0.602D-03
 Coeff:     -0.982D-03-0.217D-02-0.523D-02-0.301D-02-0.180D-02 0.497D-01
 Coeff:      0.225D+00 0.739D+00
 Gap=     0.116 Goal=   None    Shift=    0.000
 RMSDP=7.57D-08 MaxDP=3.00D-06 DE=-3.90D-09 OVMax= 1.56D-05

 Cycle  15  Pass 1  IDiag  1:
 RMSU=  4.13D-08    CP:  1.00D+00  7.84D-01  2.56D-01  5.81D-01  6.99D-01
                    CP:  6.64D-01  4.77D-01  5.48D-01  7.17D-01  6.27D-01
                    CP:  8.86D-01  8.25D-01  9.60D-01  9.64D-01
 E= -7517.80349776086     Delta-E=       -0.000000000131 Rises=F Damp=F
 DIIS: error= 1.33D-07 at cycle  15 NSaved=  15.
 NSaved=15 IEnMin=15 EnMin= -7517.80349776086     IErMin=15 ErrMin= 1.33D-07
 ErrMax= 1.33D-07  0.00D+00 EMaxC= 1.00D-01 BMatC= 4.15D-11 BMatP= 2.06D-10
 IDIUse=1 WtCom= 1.00D+00 WtEn= 0.00D+00
 Coeff-Com: -0.122D-06 0.585D-06-0.639D-06 0.123D-04 0.675D-04 0.547D-04
 Coeff-Com:  0.220D-04-0.241D-03-0.144D-02-0.501D-02-0.137D-01-0.921D-02
 Coeff-Com:  0.529D-01 0.372D+00 0.605D+00
 Coeff:     -0.122D-06 0.585D-06-0.639D-06 0.123D-04 0.675D-04 0.547D-04
 Coeff:      0.220D-04-0.241D-03-0.144D-02-0.501D-02-0.137D-01-0.921D-02
 Coeff:      0.529D-01 0.372D+00 0.605D+00
 Gap=     0.116 Goal=   None    Shift=    0.000
 RMSDP=2.67D-08 MaxDP=1.13D-06 DE=-1.31D-10 OVMax= 4.58D-06

 Cycle  16  Pass 1  IDiag  1:
 RMSU=  1.69D-08    CP:  1.00D+00  7.84D-01  2.56D-01  5.81D-01  6.99D-01
                    CP:  6.64D-01  4.77D-01  5.47D-01  7.18D-01  6.28D-01
                    CP:  8.88D-01  8.32D-01  9.74D-01  1.07D+00  8.28D-01
 E= -7517.80349776118     Delta-E=       -0.000000000327 Rises=F Damp=F
 DIIS: error= 6.39D-08 at cycle  16 NSaved=  16.
 NSaved=16 IEnMin=16 EnMin= -7517.80349776118     IErMin=16 ErrMin= 6.39D-08
 ErrMax= 6.39D-08  0.00D+00 EMaxC= 1.00D-01 BMatC= 6.11D-12 BMatP= 4.15D-11
 IDIUse=1 WtCom= 1.00D+00 WtEn= 0.00D+00
 Coeff-Com:  0.506D-07-0.415D-07-0.187D-05 0.753D-05 0.437D-04 0.832D-04
 Coeff-Com:  0.106D-03 0.980D-04-0.215D-03-0.223D-02-0.724D-02-0.106D-01
 Coeff-Com:  0.516D-02 0.128D+00 0.341D+00 0.546D+00
 Coeff:      0.506D-07-0.415D-07-0.187D-05 0.753D-05 0.437D-04 0.832D-04
 Coeff:      0.106D-03 0.980D-04-0.215D-03-0.223D-02-0.724D-02-0.106D-01
 Coeff:      0.516D-02 0.128D+00 0.341D+00 0.546D+00
 Gap=     0.116 Goal=   None    Shift=    0.000
 RMSDP=1.03D-08 MaxDP=7.54D-07 DE=-3.27D-10 OVMax= 1.21D-06

 Cycle  17  Pass 1  IDiag  1:
 RMSU=  6.12D-09    CP:  1.00D+00  7.84D-01  2.56D-01  5.81D-01  6.99D-01
                    CP:  6.64D-01  4.77D-01  5.47D-01  7.18D-01  6.28D-01
                    CP:  8.88D-01  8.33D-01  9.85D-01  1.07D+00  9.32D-01
                    CP:  7.45D-01
 E= -7517.80349776125     Delta-E=       -0.000000000067 Rises=F Damp=F
 DIIS: error= 1.83D-08 at cycle  17 NSaved=  17.
 NSaved=17 IEnMin=17 EnMin= -7517.80349776125     IErMin=17 ErrMin= 1.83D-08
 ErrMax= 1.83D-08  0.00D+00 EMaxC= 1.00D-01 BMatC= 7.50D-13 BMatP= 6.11D-12
 IDIUse=1 WtCom= 1.00D+00 WtEn= 0.00D+00
 Coeff-Com:  0.389D-07-0.598D-07-0.909D-06 0.172D-05 0.127D-04 0.430D-04
 Coeff-Com:  0.610D-04 0.130D-03 0.141D-03-0.275D-03-0.147D-02-0.399D-02
 Coeff-Com: -0.647D-02-0.187D-02 0.564D-01 0.267D+00 0.690D+00
 Coeff:      0.389D-07-0.598D-07-0.909D-06 0.172D-05 0.127D-04 0.430D-04
 Coeff:      0.610D-04 0.130D-03 0.141D-03-0.275D-03-0.147D-02-0.399D-02
 Coeff:     -0.647D-02-0.187D-02 0.564D-01 0.267D+00 0.690D+00
 Gap=     0.116 Goal=   None    Shift=    0.000
 RMSDP=3.95D-09 MaxDP=1.69D-07 DE=-6.73D-11 OVMax= 7.45D-07

 SCF Done:  E(RPBE1PBE) =  -7517.80349776     A.U. after   17 cycles
            NFock= 17  Conv=0.39D-08     -V/T= 2.1285
 KE= 6.661943957303D+03 PE=-2.465155101869D+04 EE= 6.941694729351D+03
 Leave Link  502 at Tue Mar  6 16:10:35 2018, MaxMem=   536870912 cpu:      3604.0
 (Enter /share/apps//mg09/l601.exe)
 Copying SCF densities to generalized density rwf, IOpCl= 0 IROHF=0.

 **********************************************************************

            Population analysis using the SCF density.

 **********************************************************************

 Orbital symmetries:
       Occupied  (A) (A) (A) (A) (A) (A) (A) (A) (A) (A) (A) (A)
                 (A) (A) (A) (A) (A) (A) (A) (A) (A) (A) (A) (A)
                 (A) (A) (A) (A) (A) (A) (A) (A) (A) (A) (A) (A)
                 (A) (A) (A) (A) (A) (A) (A) (A) (A) (A) (A) (A)
                 (A) (A) (A) (A) (A) (A) (A) (A) (A) (A) (A) (A)
                 (A) (A) (A) (A) (A) (A) (A) (A) (A) (A) (A) (A)
                 (A) (A) (A) (A) (A) (A) (A) (A) (A) (A) (A) (A)
                 (A) (A) (A) (A) (A) (A) (A) (A) (A) (A) (A) (A)
                 (A) (A) (A) (A) (A) (A) (A) (A) (A) (A) (A) (A)
                 (A) (A) (A) (A) (A) (A) (A) (A)
       Virtual   (A) (A) (A) (A) (A) (A) (A) (A) (A) (A) (A) (A)
                 (A) (A) (A) (A) (A) (A) (A) (A) (A) (A) (A) (A)
                 (A) (A) (A) (A) (A) (A) (A) (A) (A) (A) (A) (A)
                 (A) (A) (A) (A) (A) (A) (A) (A) (A) (A) (A) (A)
                 (A) (A) (A) (A) (A) (A) (A) (A) (A) (A) (A) (A)
                 (A) (A) (A) (A) (A) (A) (A) (A) (A) (A) (A) (A)
                 (A) (A) (A) (A) (A) (A) (A) (A) (A) (A) (A) (A)
                 (A) (A) (A) (A) (A) (A) (A) (A) (A) (A) (A) (A)
                 (A) (A) (A) (A) (A) (A) (A) (A) (A) (A) (A) (A)
                 (A) (A) (A) (A) (A) (A) (A) (A) (A) (A) (A) (A)
                 (A) (A) (A) (A) (A) (A) (A) (A) (A) (A) (A) (A)
                 (A) (A) (A) (A) (A) (A) (A) (A) (A) (A) (A) (A)
                 (A) (A) (A) (A) (A) (A) (A) (A) (A) (A) (A) (A)
                 (A) (A) (A) (A) (A) (A) (A) (A) (A) (A) (A) (A)
                 (A) (A) (A) (A) (A) (A) (A) (A) (A) (A) (A) (A)
                 (A) (A) (A) (A) (A) (A) (A) (A) (A) (A) (A) (A)
                 (A) (A) (A) (A) (A) (A) (A) (A) (A) (A) (A) (A)
                 (A) (A) (A) (A) (A) (A) (A) (A) (A) (A) (A) (A)
                 (A) (A) (A) (A) (A) (A) (A) (A) (A) (A) (A) (A)
                 (A) (A) (A) (A) (A) (A) (A) (A) (A) (A) (A) (A)
                 (A) (A) (A) (A) (A) (A) (A) (A) (A) (A) (A) (A)
                 (A) (A) (A) (A) (A) (A) (A) (A) (A) (A) (A) (A)
                 (A) (A) (A) (A) (A) (A) (A) (A) (A) (A) (A) (A)
                 (A) (A) (A) (A) (A) (A) (A) (A) (A) (A) (A) (A)
                 (A) (A) (A) (A) (A) (A) (A) (A) (A) (A) (A) (A)
                 (A) (A) (A) (A) (A) (A) (A) (A) (A) (A) (A) (A)
                 (A) (A) (A) (A) (A) (A) (A) (A) (A) (A) (A) (A)
                 (A) (A) (A) (A)
 The electronic state is 1-A.
 Alpha  occ. eigenvalues -- -399.10321-399.09116-399.08851 -49.91861 -49.90704
 Alpha  occ. eigenvalues --  -49.90429 -44.39964 -44.39915 -44.39878 -44.38797
 Alpha  occ. eigenvalues --  -44.38774 -44.38700 -44.38508 -44.38497 -44.38446
 Alpha  occ. eigenvalues --   -6.28349  -6.27205  -6.26929  -6.02623  -6.02028
 Alpha  occ. eigenvalues --   -6.01928  -6.01230  -5.13581  -5.13329  -4.43843
 Alpha  occ. eigenvalues --   -4.43692  -4.43561  -4.42692  -4.42623  -4.42373
 Alpha  occ. eigenvalues --   -4.42359  -4.42326  -4.42151  -3.74900  -3.74737
 Alpha  occ. eigenvalues --   -3.74652  -3.74304  -3.74232  -3.74216  -3.74059
 Alpha  occ. eigenvalues --   -3.73967  -3.73929  -3.73569  -3.73291  -3.73236
 Alpha  occ. eigenvalues --   -3.46813  -3.46664  -3.46615  -3.46571  -3.46516
 Alpha  occ. eigenvalues --   -3.46242  -1.23281  -1.23248  -1.23127  -1.23018
 Alpha  occ. eigenvalues --   -1.23000  -1.22191  -1.22185  -1.21960  -1.21945
 Alpha  occ. eigenvalues --   -1.21862  -1.21855  -1.21827  -1.21654  -1.21625
 Alpha  occ. eigenvalues --   -1.21568  -1.08954  -1.08555  -1.08510  -1.08398
 Alpha  occ. eigenvalues --   -1.08293  -1.08155  -1.07892  -1.07817  -1.07765
 Alpha  occ. eigenvalues --   -1.07742  -1.07664  -1.07617  -1.07605  -1.07522
 Alpha  occ. eigenvalues --   -1.07470  -1.07145  -1.07038  -1.06881  -1.06824
 Alpha  occ. eigenvalues --   -1.06751  -1.03090  -1.02972  -1.02936  -1.02884
 Alpha  occ. eigenvalues --   -1.02834  -1.02768  -1.02729  -1.02528  -1.02446
 Alpha  occ. eigenvalues --   -1.02345  -0.66992  -0.62047  -0.60351  -0.55625
 Alpha  occ. eigenvalues --   -0.50788  -0.47196  -0.44459  -0.42091  -0.40194
 Alpha  occ. eigenvalues --   -0.29071  -0.28042  -0.26563  -0.25691  -0.25029
 Alpha  occ. eigenvalues --   -0.24118  -0.23279  -0.22985  -0.22142  -0.20424
 Alpha  occ. eigenvalues --   -0.19489
 Alpha virt. eigenvalues --   -0.07880  -0.07444  -0.07291  -0.06853  -0.05801
 Alpha virt. eigenvalues --   -0.05413  -0.05174  -0.04799  -0.04509  -0.04277
 Alpha virt. eigenvalues --   -0.03423  -0.02132  -0.00599   0.03761   0.04276
 Alpha virt. eigenvalues --    0.05164   0.06441   0.08010   0.08489   0.08958
 Alpha virt. eigenvalues --    0.09217   0.09741   0.09840   0.10091   0.10754
 Alpha virt. eigenvalues --    0.11113   0.11859   0.12075   0.12184   0.12876
 Alpha virt. eigenvalues --    0.14496   0.14871   0.15781   0.16188   0.16579
 Alpha virt. eigenvalues --    0.17443   0.19702   0.20342   0.20594   0.20648
 Alpha virt. eigenvalues --    0.21209   0.21748   0.22063   0.23895   0.24274
 Alpha virt. eigenvalues --    0.24573   0.25030   0.26220   0.26466   0.29208
 Alpha virt. eigenvalues --    0.29664   0.29910   0.30283   0.31086   0.31349
 Alpha virt. eigenvalues --    0.31655   0.32466   0.32699   0.32875   0.33998
 Alpha virt. eigenvalues --    0.34468   0.34889   0.35447   0.35607   0.37934
 Alpha virt. eigenvalues --    0.39124   0.39948   0.40488   0.41312   0.41886
 Alpha virt. eigenvalues --    0.42216   0.42839   0.43017   0.43791   0.44466
 Alpha virt. eigenvalues --    0.45609   0.46107   0.46932   0.47592   0.47858
 Alpha virt. eigenvalues --    0.48593   0.49181   0.50472   0.50919   0.52289
 Alpha virt. eigenvalues --    0.52875   0.53745   0.54616   0.55762   0.55893
 Alpha virt. eigenvalues --    0.56737   0.56918   0.57856   0.58573   0.58818
 Alpha virt. eigenvalues --    0.59444   0.60004   0.60223   0.61208   0.61450
 Alpha virt. eigenvalues --    0.62956   0.63177   0.64126   0.65495   0.66346
 Alpha virt. eigenvalues --    0.67068   0.67464   0.68178   0.69005   0.69471
 Alpha virt. eigenvalues --    0.70667   0.71458   0.72346   0.72863   0.73656
 Alpha virt. eigenvalues --    0.74945   0.75976   0.76933   0.78126   0.78665
 Alpha virt. eigenvalues --    0.79282   0.79886   0.81402   0.81600   0.82463
 Alpha virt. eigenvalues --    0.83456   0.84562   0.85139   0.85521   0.86145
 Alpha virt. eigenvalues --    0.86822   0.87365   0.88222   0.89236   0.89496
 Alpha virt. eigenvalues --    0.91079   0.91548   0.92797   0.93033   0.93458
 Alpha virt. eigenvalues --    0.94101   0.94583   0.96239   0.97132   0.97292
 Alpha virt. eigenvalues --    0.98339   0.98782   0.98992   1.00090   1.01637
 Alpha virt. eigenvalues --    1.02173   1.03422   1.05364   1.05833   1.06580
 Alpha virt. eigenvalues --    1.08618   1.09785   1.10698   1.11672   1.13001
 Alpha virt. eigenvalues --    1.13833   1.14782   1.15338   1.16222   1.17297
 Alpha virt. eigenvalues --    1.17748   1.17972   1.18672   1.19615   1.19797
 Alpha virt. eigenvalues --    1.20229   1.20429   1.21133   1.21725   1.22113
 Alpha virt. eigenvalues --    1.22270   1.22430   1.22936   1.23660   1.24311
 Alpha virt. eigenvalues --    1.24643   1.24734   1.25265   1.25985   1.26574
 Alpha virt. eigenvalues --    1.27433   1.27675   1.28797   1.29024   1.29609
 Alpha virt. eigenvalues --    1.30568   1.31377   1.32414   1.33086   1.34274
 Alpha virt. eigenvalues --    1.34523   1.36166   1.37144   1.37848   1.39013
 Alpha virt. eigenvalues --    1.40032   1.41453   1.42194   1.43183   1.43449
 Alpha virt. eigenvalues --    1.44427   1.45802   1.46955   1.47476   1.48573
 Alpha virt. eigenvalues --    1.49491   1.50905   1.51827   1.52095   1.52932
 Alpha virt. eigenvalues --    1.54641   1.54704   1.57603   1.57863   1.60022
 Alpha virt. eigenvalues --    1.62415   1.69476   1.70369   2.08137   2.08431
 Alpha virt. eigenvalues --    2.09224   2.10035   2.11938   2.15191   2.15937
 Alpha virt. eigenvalues --    2.16833   2.17446   2.19858   2.20053   2.21332
 Alpha virt. eigenvalues --    2.21904   2.23610   2.24433   2.25201   2.26607
 Alpha virt. eigenvalues --    2.26872   2.28836   2.28972   2.31173   2.31680
 Alpha virt. eigenvalues --    2.33366   2.33902   2.36261   2.37248   2.39108
 Alpha virt. eigenvalues --    2.41704   2.42309   2.42813   2.44898   2.45515
 Alpha virt. eigenvalues --    2.47156   2.49294   2.50028   2.53041   2.54593
 Alpha virt. eigenvalues --    2.58023   2.61211   2.63140   2.65259   2.66801
 Alpha virt. eigenvalues --    2.67747   2.69800   2.73572   2.74120   2.75497
 Alpha virt. eigenvalues --    2.76265   2.78683   2.79988   2.80942   2.81829
 Alpha virt. eigenvalues --    2.82420   2.83550   2.85019   2.87958   2.95298
 Alpha virt. eigenvalues --    3.22547   3.23660   3.30843   3.34050   3.38633
 Alpha virt. eigenvalues --    3.43989   3.92361   3.95919   3.97945   3.99452
 Alpha virt. eigenvalues --    4.00706   4.04273   4.05912   4.06542   4.11792
 Alpha virt. eigenvalues --    5.23595   5.32252   5.38296  35.37895  35.39472
 Alpha virt. eigenvalues --   35.42121  35.44762  35.45790  35.47036  35.50704
 Alpha virt. eigenvalues --   35.52154  35.55079  35.56657  35.59931  35.63400
 Alpha virt. eigenvalues --   35.88611  35.90944  36.02368  36.10313  36.19202
 Alpha virt. eigenvalues --   36.21849  36.95137  36.96231  36.98305  37.05817
 Alpha virt. eigenvalues --   37.07923  37.16933 113.57703 113.58884 120.21807
 Alpha virt. eigenvalues --  120.23006 120.25146 120.25803
          Condensed to atoms (all electrons):
               1          2          3          4          5          6
     1  Sn  21.474751  -0.012286   0.166358  -0.017951   0.190967  -0.012246
     2  Ge  -0.012286  31.602529   0.120589  -0.020239  -0.016582   0.190125
     3  Bi   0.166358   0.120589  22.294626  -0.023609   0.080826  -0.027706
     4  Bi  -0.017951  -0.020239  -0.023609  22.378836   0.162127   0.168512
     5  Ge   0.190967  -0.016582   0.080826   0.162127  31.550970  -0.015936
     6  Ge  -0.012246   0.190125  -0.027706   0.168512  -0.015936  31.549617
     7  Bi   0.124292   0.139688   0.104558  -0.022526  -0.027478   0.173682
     8  Bi  -0.018434   0.169198   0.186573   0.184695   0.121922  -0.017573
     9  Sn   0.150623  -0.017362  -0.023523   0.162687   0.058179   0.115506
               7          8          9
     1  Sn   0.124292  -0.018434   0.150623
     2  Ge   0.139688   0.169198  -0.017362
     3  Bi   0.104558   0.186573  -0.023523
     4  Bi  -0.022526   0.184695   0.162687
     5  Ge  -0.027478   0.121922   0.058179
     6  Ge   0.173682  -0.017573   0.115506
     7  Bi  22.283278  -0.027554   0.129736
     8  Bi  -0.027554  22.341564  -0.017211
     9  Sn   0.129736  -0.017211  21.358579
 Mulliken charges:
               1
     1  Sn  -0.046074
     2  Ge  -0.155659
     3  Bi   0.121309
     4  Bi   0.027468
     5  Ge  -0.104994
     6  Ge  -0.123981
     7  Bi   0.122325
     8  Bi   0.076821
     9  Sn   0.082786
 Sum of Mulliken charges =   0.00000
 Mulliken charges with hydrogens summed into heavy atoms:
               1
     1  Sn  -0.046074
     2  Ge  -0.155659
     3  Bi   0.121309
     4  Bi   0.027468
     5  Ge  -0.104994
     6  Ge  -0.123981
     7  Bi   0.122325
     8  Bi   0.076821
     9  Sn   0.082786
 Electronic spatial extent (au):  <R**2>=           5932.7671
 Charge=              0.0000 electrons
 Dipole moment (field-independent basis, Debye):
    X=              0.1363    Y=             -0.6037    Z=             -0.7456  Tot=              0.9690
 Quadrupole moment (field-independent basis, Debye-Ang):
   XX=           -212.5945   YY=           -216.5903   ZZ=           -224.6567
   XY=              0.7416   XZ=             -1.0109   YZ=             -0.8448
 Traceless Quadrupole moment (field-independent basis, Debye-Ang):
   XX=              5.3526   YY=              1.3569   ZZ=             -6.7095
   XY=              0.7416   XZ=             -1.0109   YZ=             -0.8448
 Octapole moment (field-independent basis, Debye-Ang**2):
  XXX=            -37.5250  YYY=            -74.0572  ZZZ=              5.3308  XYY=            -11.2047
  XXY=            -21.2039  XXZ=             13.0636  XZZ=             -6.9201  YZZ=            -19.4791
  YYZ=             -4.2377  XYZ=              4.9639
 Hexadecapole moment (field-independent basis, Debye-Ang**3):
 XXXX=          -3508.0615 YYYY=          -3309.3493 ZZZZ=          -2836.3188 XXXY=            -15.4626
 XXXZ=             87.1990 YYYX=            -33.7219 YYYZ=             24.8761 ZZZX=             62.1407
 ZZZY=             22.6666 XXYY=          -1109.7134 XXZZ=          -1068.9259 YYZZ=          -1048.1858
 XXYZ=             10.9034 YYXZ=             10.6012 ZZXY=             -1.9435
 N-N= 3.530108834278D+03 E-N=-2.465155101729D+04  KE= 6.661943957303D+03
 No NMR shielding tensors so no spin-rotation constants.
 Leave Link  601 at Tue Mar  6 16:10:35 2018, MaxMem=   536870912 cpu:         1.6
 (Enter /share/apps//mg09/l701.exe)
 Compute integral first derivatives.
 ... and contract with generalized density number  0.
   1 Symmetry operations used in ECPInt.
 ECPInt:  NShTT=   10440 NPrTT=   41973 LenC2=    9651 LenP2D=   27464.
 LDataN:  DoStor=T MaxTD1= 9 Len=  602
 Leave Link  701 at Tue Mar  6 16:10:59 2018, MaxMem=   536870912 cpu:        86.1
 (Enter /share/apps//mg09/l702.exe)
 L702 exits ... SP integral derivatives will be done elsewhere.
 Leave Link  702 at Tue Mar  6 16:10:59 2018, MaxMem=   536870912 cpu:         0.1
 (Enter /share/apps//mg09/l703.exe)
 Compute integral first derivatives, UseDBF=F ICtDFT=           0.
 Integral derivatives from FoFJK, PRISM(SPDF).
 Calling FoFJK, ICntrl=      2127 FMM=F ISym2X=0 I1Cent= 0 IOpClX= 0 NMat=1 NMatS=1 NMatT=0.
 FoFJK:  IHMeth= 1 ICntrl=    2127 DoSepK=F KAlg= 0 I1Cent=   0 FoldK=F
 IRaf=         0 NMat=   1 IRICut=       1 DoRegI=T DoRafI=F ISym2E= 0.
 FoFCou: FMM=F IPFlag=           0 FMFlag=      100000 FMFlg1=         800
         NFxFlg=           0 DoJE=F BraDBF=F KetDBF=F FulRan=T
         wScrn=  0.000000 ICntrl=    2127 IOpCl=  0 I1Cent=           0 NGrid=           0
         NMat0=    1 NMatS0=      1 NMatT0=    0 NMatD0=    1 NMtDS0=    0 NMtDT0=    0
 Symmetry not used in FoFCou.
 Defaulting to unpruned grid for atomic number  50.
 Defaulting to unpruned grid for atomic number  50.
 Defaulting to unpruned grid for atomic number  50.
 Defaulting to unpruned grid for atomic number  50.
 Leave Link  703 at Tue Mar  6 16:14:57 2018, MaxMem=   536870912 cpu:       818.6
 (Enter /share/apps//mg09/l716.exe)
 Dipole        = 5.36146232D-02-2.37525597D-01-2.93334804D-01
 ***** Axes restored to original set *****
 -------------------------------------------------------------------
 Center     Atomic                   Forces (Hartrees/Bohr)
 Number     Number              X              Y              Z
 -------------------------------------------------------------------
      1       50           0.010529590    0.000177887    0.007341504
      2       32           0.000066600   -0.008949644   -0.009873693
      3       83           0.003517377   -0.007844408    0.001398039
      4       83          -0.008950559    0.003790767    0.000397692
      5       32          -0.005455208   -0.002894121    0.010809433
      6       32          -0.004904177    0.008430279   -0.010565638
      7       83           0.010347773    0.000274040   -0.002888755
      8       83          -0.006904230   -0.005887287    0.000004278
      9       50           0.001752833    0.012902486    0.003377140
 -------------------------------------------------------------------
 Cartesian Forces:  Max     0.012902486 RMS     0.006813393
 Force constants in Cartesian coordinates: 
                1             2             3             4             5 
      1  0.142006D+00
      2  0.659435D-02  0.112075D+00
      3  0.363863D-01  0.551531D-02  0.140813D+00
      4  0.247896D-02  0.176756D-02 -0.144793D-02  0.122060D+00
      5 -0.128641D-02  0.650250D-02 -0.566099D-02  0.154886D-01  0.142963D+00
      6 -0.672233D-02 -0.351084D-02 -0.155209D-02  0.245153D-02  0.226567D-01
      7 -0.265697D-01 -0.218473D-01 -0.159846D-01 -0.228245D-01  0.118769D-01
      8  0.940435D-02 -0.530540D-01  0.498586D-03  0.248616D-02 -0.348925D-01
      9 -0.796363D-02 -0.276708D-01 -0.312590D-01 -0.247193D-01  0.268664D-01
     10 -0.336760D-02  0.231861D-02 -0.662527D-02 -0.984750D-03  0.495400D-02
     11  0.466889D-02  0.672400D-02 -0.856300D-03  0.511759D-02  0.251828D-02
     12 -0.215857D-02 -0.278238D-02  0.405538D-02  0.101551D-02 -0.603093D-02
     13 -0.593397D-01 -0.744538D-02  0.257441D-01  0.593726D-02  0.147345D-02
     14 -0.509843D-02 -0.219160D-01  0.546295D-02 -0.397010D-03  0.380265D-02
     15 -0.171287D-01 -0.151720D-02 -0.353140D-01  0.133225D-02 -0.685663D-02
     16  0.261211D-02 -0.252336D-02 -0.301208D-02 -0.203646D-01 -0.184901D-03
     17  0.150814D-02  0.501753D-02  0.539474D-02  0.149247D-01 -0.569118D-01
     18 -0.797614D-02  0.129548D-02 -0.964649D-03  0.290022D-02 -0.198338D-01
     19 -0.282698D-01 -0.128094D-02 -0.174993D-01 -0.507912D-01 -0.144398D-01
     20 -0.387007D-02 -0.149321D-01 -0.227130D-03 -0.348340D-01 -0.357959D-01
     21  0.221620D-01  0.575451D-02 -0.537953D-01 -0.234230D-01 -0.194396D-01
     22 -0.437527D-03 -0.326602D-02 -0.703220D-02 -0.416601D-01 -0.145114D-01
     23 -0.668814D-02  0.403308D-02 -0.135152D-02 -0.434201D-02 -0.263243D-01
     24 -0.329206D-02  0.226879D-02  0.416124D-02  0.398957D-01  0.958177D-02
     25 -0.291129D-01  0.256825D-01 -0.105290D-01  0.614846D-02 -0.337045D-02
     26 -0.523268D-02 -0.444497D-01 -0.877565D-02 -0.211542D-03 -0.186177D-02
     27 -0.133069D-01  0.206472D-01 -0.261447D-01  0.199502D-02 -0.128292D-02
                6             7             8             9            10 
      6  0.183791D+00
      7 -0.936470D-02  0.158252D+00
      8 -0.938139D-02 -0.295245D-01  0.203189D+00
      9 -0.565500D-01  0.232891D-01 -0.775483D-02  0.148567D+00
     10  0.137434D-02 -0.504218D-03  0.943294D-02 -0.211224D-02  0.178347D+00
     11 -0.660980D-02  0.201461D-02 -0.584197D-03  0.329563D-02 -0.223733D-01
     12 -0.341027D-03  0.234803D-02 -0.800238D-03  0.528135D-02 -0.365378D-02
     13  0.239542D-02 -0.258015D-01  0.694679D-02  0.181319D-01 -0.427101D-01
     14  0.255076D-02  0.196314D-01 -0.323288D-01 -0.187557D-01  0.801822D-02
     15 -0.559954D-02  0.256049D-02  0.105305D-01 -0.343389D-01  0.307441D-02
     16 -0.425044D-02  0.368679D-02  0.183464D-02  0.152157D-02 -0.396410D-01
     17  0.170182D-01  0.586206D-02 -0.127276D-02  0.170590D-02  0.865973D-02
     18 -0.348657D-01 -0.431248D-02  0.875565D-02  0.206256D-02  0.418936D-02
     19  0.738288D-02 -0.292242D-01  0.118564D-01  0.455784D-03 -0.526925D-02
     20 -0.374374D-02 -0.191740D-01 -0.400683D-01  0.186986D-01 -0.253163D-02
     21 -0.360492D-01  0.140457D-01  0.530764D-02 -0.230212D-01  0.527323D-02
     22  0.809314D-02 -0.623791D-01 -0.120274D-01 -0.704234D-02 -0.282848D-01
     23 -0.940891D-02  0.263670D-01 -0.313954D-01  0.224763D-02 -0.142092D-01
     24 -0.503255D-01 -0.118739D-01 -0.367582D-02 -0.177708D-01  0.416479D-03
     25 -0.135984D-02  0.536442D-02 -0.409430D-03 -0.156087D-02 -0.575855D-01
     26 -0.957103D-02  0.479385D-02 -0.959321D-02  0.136727D-02  0.573064D-02
     27  0.149232D-02 -0.707674D-03 -0.348009D-02  0.702880D-02 -0.193652D-02
               11            12            13            14            15 
     11  0.138738D+00
     12 -0.112219D-01  0.123850D+00
     13  0.186365D-01 -0.310153D-01  0.163319D+00
     14 -0.320722D-01  0.295081D-01 -0.636747D-03  0.130596D+00
     15  0.108584D-01 -0.547129D-01 -0.833238D-02 -0.599969D-02  0.220405D+00
     16 -0.196836D-02  0.382345D-01  0.570299D-02  0.604746D-03 -0.133740D-02
     17 -0.229425D-01  0.975573D-03 -0.139311D-02  0.301354D-02  0.787010D-02
     18  0.110852D-01 -0.509535D-01  0.225410D-02 -0.132472D-02 -0.538926D-02
     19  0.598600D-02  0.207402D-02 -0.162806D-02 -0.203108D-02  0.115104D-01
     20  0.392793D-02  0.144519D-02 -0.141386D-02  0.678318D-02  0.233884D-02
     21 -0.182845D-02  0.544309D-02  0.358884D-02  0.118465D-02 -0.387004D-02
     22  0.214296D-01  0.497124D-02 -0.320992D-01 -0.865765D-02  0.629966D-02
     23 -0.584596D-01 -0.802259D-02 -0.148411D-01 -0.275715D-01 -0.384659D-02
     24 -0.627146D-03 -0.151171D-01 -0.223589D-01 -0.297441D-01 -0.542203D-01
     25 -0.335116D-01 -0.118157D-01 -0.133805D-01 -0.114334D-01  0.202124D-02
     26 -0.378492D-01 -0.307092D-02 -0.132654D-02 -0.303070D-01 -0.133777D-01
     27 -0.409568D-02 -0.175050D-01  0.959218D-02  0.171177D-01 -0.269602D-01
               16            17            18            19            20 
     16  0.138678D+00
     17 -0.244062D-01  0.133849D+00
     18  0.107225D-01 -0.227652D-01  0.168077D+00
     19 -0.736854D-01  0.644689D-02  0.435316D-02  0.227304D+00
     20  0.276503D-01 -0.241803D-01  0.590389D-02  0.118551D-01  0.141327D+00
     21 -0.283439D-01  0.104421D-01 -0.368328D-01 -0.159081D-01 -0.170180D-02
     22  0.144364D-02 -0.442456D-02 -0.112912D-02 -0.361367D-02  0.147464D-03
     23 -0.558433D-02 -0.264650D-02  0.634201D-02 -0.864756D-02  0.200562D-02
     24 -0.407332D-03  0.629293D-02  0.591238D-03  0.136715D-02 -0.766540D-03
     25 -0.184326D-01 -0.717764D-02 -0.110016D-01 -0.348224D-01  0.221707D-01
     26  0.457742D-02 -0.339259D-01  0.105415D-01 -0.974503D-02 -0.390671D-01
     27 -0.131275D-01 -0.269344D-01 -0.417251D-01  0.626409D-02 -0.219473D-01
               21            22            23            24            25 
     21  0.170522D+00
     22  0.376824D-02  0.164167D+00
     23  0.297846D-02  0.294275D-01  0.143194D+00
     24  0.551901D-02 -0.538046D-02  0.156968D-01  0.122855D+00
     25  0.188370D-01  0.286349D-02 -0.148211D-02  0.163335D-02  0.138958D+00
     26 -0.269754D-02 -0.811762D-02 -0.283524D-02  0.973282D-03  0.953151D-02
     27 -0.279159D-01 -0.254816D-02 -0.463533D-02  0.430725D-02  0.137754D-01
               26            27 
     26  0.199889D+00
     27  0.246108D-01  0.127422D+00
 Leave Link  716 at Tue Mar  6 16:14:57 2018, MaxMem=   536870912 cpu:         0.1
 (Enter /share/apps//mg09/l103.exe)

 GradGradGradGradGradGradGradGradGradGradGradGradGradGradGradGradGradGrad
 Berny optimization.
 Search for a local minimum.
 Step number   1 out of a maximum of  100
 All quantities printed in internal units (Hartrees-Bohrs-Radians)
 Second derivative matrix not updated -- first step.
 ITU=  0
     Eigenvalues ---    0.08703   0.11214   0.11780   0.13325   0.13604
     Eigenvalues ---    0.14243   0.14875   0.15127   0.16107   0.16727
     Eigenvalues ---    0.17142   0.21778   0.23306   0.23596   0.24766
     Eigenvalues ---    0.26815   0.27335   0.27816   0.27994   0.28428
     Eigenvalues ---    0.32344
 RFO step:  Lambda=-7.68679985D-03 EMin= 8.70320774D-02
 Linear search not attempted -- first point.
 TrRot= -0.001069 -0.000563 -0.001331 -0.000018  0.000081 -0.000018
 MatCor failed.
 Variable       Old X    -DE/DX   Delta X   Delta X   Delta X     New X
                                 (Linear)    (Quad)   (Total)
    X1       -3.91451   0.01053   0.00000   0.06935   0.06796  -3.84654
    Y1       -0.65762   0.00018   0.00000  -0.00004  -0.00047  -0.65809
    Z1       -3.68135   0.00734   0.00000   0.05306   0.05204  -3.62931
    X2        0.00743   0.00007   0.00000   0.00624   0.00560   0.01303
    Y2        2.30543  -0.00895   0.00000  -0.05550  -0.05606   2.24937
    Z2        4.31833  -0.00987   0.00000  -0.05610  -0.05743   4.26090
    X3       -1.98053   0.00352   0.00000   0.02117   0.02018  -1.96035
    Y3        3.88227  -0.00784   0.00000  -0.05287  -0.05336   3.82891
    Z3       -0.75347   0.00140   0.00000   0.01348   0.01231  -0.74116
    X4        4.28080  -0.00895   0.00000  -0.05500  -0.05618   4.22462
    Y4       -2.50368   0.00379   0.00000   0.03191   0.03120  -2.47249
    Z4       -0.38508   0.00040   0.00000   0.00794   0.00626  -0.37882
    X5        1.46018  -0.00546   0.00000  -0.03165  -0.03305   1.42713
    Y5        0.24450  -0.00289   0.00000  -0.01677  -0.01738   0.22712
    Z5       -4.22918   0.01081   0.00000   0.06306   0.06161  -4.16757
    X6        0.89037  -0.00490   0.00000  -0.01855  -0.01940   0.87097
    Y6       -2.85365   0.00843   0.00000   0.05388   0.05329  -2.80036
    Z6        4.01521  -0.01057   0.00000  -0.06421  -0.06561   3.94960
    X7       -3.91370   0.01035   0.00000   0.04919   0.04826  -3.86544
    Y7       -1.05515   0.00027   0.00000   0.00875   0.00832  -1.04683
    Z7        2.24629  -0.00289   0.00000  -0.02963  -0.03065   2.21564
    X8        3.56732  -0.00690   0.00000  -0.04178  -0.04273   3.52459
    Y8        3.11457  -0.00589   0.00000  -0.04385  -0.04453   3.07004
    Z8        0.19535   0.00000   0.00000   0.00165   0.00004   0.19538
    X9       -0.83805   0.00175   0.00000   0.01068   0.00936  -0.82870
    Y9       -4.85510   0.01290   0.00000   0.07953   0.07900  -4.77609
    Z9       -1.10857   0.00338   0.00000   0.02271   0.02144  -1.08713
         Item               Value     Threshold  Converged?
 Maximum Force            0.012902     0.000450     NO 
 RMS     Force            0.006813     0.000300     NO 
 Maximum Displacement     0.079001     0.001800     NO 
 RMS     Displacement     0.042173     0.001200     NO 
 Predicted change in Energy=-4.028101D-03
 Lowest energy point so far.  Saving SCF results.
 GradGradGradGradGradGradGradGradGradGradGradGradGradGradGradGradGradGrad

 Leave Link  103 at Tue Mar  6 16:14:57 2018, MaxMem=   536870912 cpu:         0.1
 (Enter /share/apps//mg09/l202.exe)
                          Input orientation:                          
 ---------------------------------------------------------------------
 Center     Atomic      Atomic             Coordinates (Angstroms)
 Number     Number       Type             X           Y           Z
 ---------------------------------------------------------------------
      1         50           0       -2.035504   -0.348246   -1.920550
      2         32           0        0.006894    1.190313    2.254772
      3         83           0       -1.037373    2.026173   -0.392205
      4         83           0        2.235574   -1.308385   -0.200461
      5         32           0        0.755206    0.120186   -2.205383
      6         32           0        0.460896   -1.481888    2.090037
      7         83           0       -2.045505   -0.553957    1.172465
      8         83           0        1.865134    1.624596    0.103393
      9         50           0       -0.438528   -2.527401   -0.575284
 ---------------------------------------------------------------------
                    Distance matrix (angstroms):
                    1          2          3          4          5
     1  Sn   0.000000
     2  Ge   4.896107   0.000000
     3  Bi   2.994991   2.965744   0.000000
     4  Bi   4.703475   4.151948   4.676347   0.000000
     5  Ge   2.844050   4.647378   3.183354   2.872632   0.000000
     6  Ge   4.858186   2.715495   4.551135   2.902751   4.593897
     7  Bi   3.099864   2.902792   3.181445   4.558697   4.439404
     8  Bi   4.816994   2.875776   2.971772   2.971856   2.970797
     9  Sn   3.018077   4.693507   4.596430   2.962653   3.330456
                    6          7          8          9
     6  Ge   0.000000
     7  Bi   2.825781   0.000000
     8  Bi   3.945743   4.602402   0.000000
     9  Sn   3.000999   3.087310   4.796513   0.000000
 Stoichiometry    Bi4Ge3Sn2
 Framework group  C1[X(Bi4Ge3Sn2)]
 Deg. of freedom    21
 Full point group                 C1      NOp   1
 RotChk:  IX=0 Diff= 3.50D-03
 Largest Abelian subgroup         C1      NOp   1
 Largest concise Abelian subgroup C1      NOp   1
                         Standard orientation:                         
 ---------------------------------------------------------------------
 Center     Atomic      Atomic             Coordinates (Angstroms)
 Number     Number       Type             X           Y           Z
 ---------------------------------------------------------------------
      1         50           0        2.034914    0.343453   -1.922291
      2         32           0       -0.008350   -1.193515    2.253191
      3         83           0        1.032341   -2.029808   -0.395056
      4         83           0       -2.232880    1.312053   -0.198800
      5         32           0       -0.757034   -0.118412   -2.205704
      6         32           0       -0.456369    1.479833    2.090702
      7         83           0        2.047333    0.546870    1.170867
      8         83           0       -1.868931   -1.621986    0.102670
      9         50           0        0.443755    2.525251   -0.574420
 ---------------------------------------------------------------------
 Rotational constants (GHZ):      0.1068898      0.0953215      0.0801309
 Leave Link  202 at Tue Mar  6 16:14:59 2018, MaxMem=   536870912 cpu:         0.0
 (Enter /share/apps//mg09/l301.exe)
 Standard basis: def2TZVP (5D, 7F)
 Ernie: Thresh=  0.10000D-02 Tol=  0.10000D-05 Strict=F.
 There are   519 symmetry adapted cartesian basis functions of A   symmetry.
 There are   444 symmetry adapted basis functions of A   symmetry.
   444 basis functions,   963 primitive gaussians,   519 cartesian basis functions
   116 alpha electrons      116 beta electrons
       nuclear repulsion energy      3583.8475158765 Hartrees.
 IExCor= 1009 DFT=T Ex+Corr=PBE1PBE ExCW=0 ScaHFX=  0.250000
 ScaDFX=  0.750000  0.750000  1.000000  1.000000 ScalE2=  1.000000  1.000000
 IRadAn=      0 IRanWt=     -1 IRanGd=            0 ICorTp=0 IEmpDi=  4
 NAtoms=    9 NActive=    9 NUniq=    9 SFac= 1.00D+00 NAtFMM=   60 NAOKFM=F Big=F
 Integral buffers will be    131072 words long.
 Raffenetti 2 integral format.
 Two-electron integral symmetry is turned on.
 Leave Link  301 at Tue Mar  6 16:14:59 2018, MaxMem=   536870912 cpu:         0.2
 (Enter /share/apps//mg09/l302.exe)
 NPDir=0 NMtPBC=     1 NCelOv=     1 NCel=       1 NClECP=     1 NCelD=      1
         NCelK=      1 NCelE2=     1 NClLst=     1 CellRange=     0.0.
 One-electron integrals computed using PRISM.
   1 Symmetry operations used in ECPInt.
 ECPInt:  NShTT=   10440 NPrTT=   41973 LenC2=    9682 LenP2D=   27644.
 LDataN:  DoStor=T MaxTD1= 8 Len=  415
 NBasis=   444 RedAO= T EigKep=  1.15D-03  NBF=   444
 NBsUse=   444 1.00D-06 EigRej= -1.00D+00 NBFU=   444
 Precomputing XC quadrature grid using
 IXCGrd= 4 IRadAn=           0 IRanWt=          -1 IRanGd=           0 AccXCQ= 0.00D+00.
 Defaulting to unpruned grid for atomic number  50.
 Defaulting to unpruned grid for atomic number  83.
 Defaulting to unpruned grid for atomic number  83.
 Generated NRdTot=       0 NPtTot=           0 NUsed=           0 NTot=          32
 NSgBfM=   503   503   503   504   504 MxSgAt=     9 MxSgA2=     9.
 Leave Link  302 at Tue Mar  6 16:15:08 2018, MaxMem=   536870912 cpu:        34.6
 (Enter /share/apps//mg09/l303.exe)
 DipDrv:  MaxL=1.
 Leave Link  303 at Tue Mar  6 16:15:08 2018, MaxMem=   536870912 cpu:         0.4
 (Enter /share/apps//mg09/l401.exe)
 Initial guess from the checkpoint file:  "Isomer_52.chk"
 B after Tr=     0.000000    0.000000    0.000000
         Rot=    0.999999   -0.000342   -0.000412    0.001078 Ang=  -0.14 deg.
 Guess basis will be translated and rotated to current coordinates.
 JPrj=2 DoOrth=T DoCkMO=T.
 Generating alternative initial guess.
 ExpMin= 4.62D-02 ExpMax= 4.66D+05 ExpMxC= 4.50D+03 IAcc=2 IRadAn=         4 AccDes= 0.00D+00
 Harris functional with IExCor= 1009 and IRadAn=       4 diagonalized for initial guess.
 HarFok:  IExCor= 1009 AccDes= 0.00D+00 IRadAn=         4 IDoV= 1 UseB2=F ITyADJ=14
 ICtDFT=  3500011 ScaDFX=  1.000000  1.000000  1.000000  1.000000
 Defaulting to unpruned grid for atomic number  50.
 Defaulting to unpruned grid for atomic number  50.
 Defaulting to unpruned grid for atomic number  50.
 Defaulting to unpruned grid for atomic number  50.
 FoFCou: FMM=F IPFlag=           0 FMFlag=      100000 FMFlg1=           0
         NFxFlg=           0 DoJE=T BraDBF=F KetDBF=T FulRan=T
         wScrn=  0.000000 ICntrl=     500 IOpCl=  0 I1Cent=   200000004 NGrid=           0
         NMat0=    1 NMatS0=      1 NMatT0=    0 NMatD0=    1 NMtDS0=    0 NMtDT0=    0
 Petite list used in FoFCou.
 Harris En= -7518.60552716235    
 Leave Link  401 at Tue Mar  6 16:15:13 2018, MaxMem=   536870912 cpu:        14.9
 (Enter /share/apps//mg09/l502.exe)
 Closed shell SCF:
 Using DIIS extrapolation, IDIIS=  1040.
 Integral symmetry usage will be decided dynamically.
 IVT=     1410107 IEndB=     1410107 NGot=   536870912 MDV=   536322046
 LenX=   536322046 LenY=   536052166
 Requested convergence on RMS density matrix=1.00D-08 within 768 cycles.
 Requested convergence on MAX density matrix=1.00D-06.
 Requested convergence on             energy=1.00D-06.
 No special actions if energy rises.
 Fock matrices will be formed incrementally for  20 cycles.

 Cycle   1  Pass 1  IDiag  1:
 FoFJK:  IHMeth= 1 ICntrl=       0 DoSepK=F KAlg= 0 I1Cent=   0 FoldK=F
 IRaf= 880000000 NMat=   1 IRICut=       1 DoRegI=T DoRafI=F ISym2E= 0.
 FoFCou: FMM=F IPFlag=           0 FMFlag=      100000 FMFlg1=           0
         NFxFlg=           0 DoJE=F BraDBF=F KetDBF=F FulRan=T
         wScrn=  0.000000 ICntrl=       0 IOpCl=  0 I1Cent=           0 NGrid=           0
         NMat0=    1 NMatS0=      1 NMatT0=    0 NMatD0=    1 NMtDS0=    0 NMtDT0=    0
 Symmetry not used in FoFCou.
 Defaulting to unpruned grid for atomic number  50.
 Defaulting to unpruned grid for atomic number  50.
 Defaulting to unpruned grid for atomic number  50.
 Defaulting to unpruned grid for atomic number  50.
 E= -7517.80772737218    
 DIIS: error= 6.41D-03 at cycle   1 NSaved=   1.
 NSaved= 1 IEnMin= 1 EnMin= -7517.80772737218     IErMin= 1 ErrMin= 6.41D-03
 ErrMax= 6.41D-03  0.00D+00 EMaxC= 1.00D-01 BMatC= 8.27D-03 BMatP= 8.27D-03
 IDIUse=3 WtCom= 9.36D-01 WtEn= 6.41D-02
 Coeff-Com:  0.100D+01
 Coeff-En:   0.100D+01
 Coeff:      0.100D+01
 Gap=     8.153 Goal=   None    Shift=    0.000
 GapD=    8.153 DampG=2.000 DampE=1.000 DampFc=2.0000 IDamp=-1.
 RMSDP=1.77D-04 MaxDP=5.44D-03              OVMax= 2.00D-02

 Cycle   2  Pass 1  IDiag  1:
 RMSU=  1.76D-04    CP:  1.00D+00
 E= -7517.80780997818     Delta-E=       -0.000082606006 Rises=F Damp=F
 DIIS: error= 1.69D-03 at cycle   2 NSaved=   2.
 NSaved= 2 IEnMin= 2 EnMin= -7517.80780997818     IErMin= 2 ErrMin= 1.69D-03
 ErrMax= 1.69D-03  0.00D+00 EMaxC= 1.00D-01 BMatC= 1.48D-03 BMatP= 8.27D-03
 IDIUse=3 WtCom= 9.83D-01 WtEn= 1.69D-02
 Coeff-Com:  0.190D+00 0.810D+00
 Coeff-En:   0.474D+00 0.526D+00
 Coeff:      0.195D+00 0.805D+00
 Gap=     0.118 Goal=   None    Shift=    0.000
 RMSDP=1.94D-04 MaxDP=7.02D-03 DE=-8.26D-05 OVMax= 1.48D-02

 Cycle   3  Pass 1  IDiag  1:
 RMSU=  1.76D-04    CP:  9.99D-01  5.60D-01
 E= -7517.80640026240     Delta-E=        0.001409715780 Rises=F Damp=F
 DIIS: error= 2.50D-03 at cycle   3 NSaved=   3.
 NSaved= 3 IEnMin= 2 EnMin= -7517.80780997818     IErMin= 2 ErrMin= 1.69D-03
 ErrMax= 2.50D-03  0.00D+00 EMaxC= 1.00D-01 BMatC= 3.31D-03 BMatP= 1.48D-03
 IDIUse=3 WtCom= 1.67D-01 WtEn= 8.33D-01
 Coeff-Com:  0.299D-02 0.599D+00 0.398D+00
 Coeff-En:   0.000D+00 0.648D+00 0.352D+00
 Coeff:      0.499D-03 0.640D+00 0.359D+00
 Gap=     0.120 Goal=   None    Shift=    0.000
 RMSDP=9.96D-05 MaxDP=4.12D-03 DE= 1.41D-03 OVMax= 8.41D-03

 Cycle   4  Pass 1  IDiag  1:
 RMSU=  2.13D-05    CP:  9.99D-01  8.15D-01  5.19D-01
 E= -7517.80888441577     Delta-E=       -0.002484153370 Rises=F Damp=F
 DIIS: error= 3.55D-04 at cycle   4 NSaved=   4.
 NSaved= 4 IEnMin= 4 EnMin= -7517.80888441577     IErMin= 4 ErrMin= 3.55D-04
 ErrMax= 3.55D-04  0.00D+00 EMaxC= 1.00D-01 BMatC= 7.73D-05 BMatP= 1.48D-03
 IDIUse=3 WtCom= 9.96D-01 WtEn= 3.55D-03
 Coeff-Com: -0.739D-03 0.347D+00 0.167D+00 0.487D+00
 Coeff-En:   0.000D+00 0.240D-02 0.000D+00 0.998D+00
 Coeff:     -0.736D-03 0.345D+00 0.167D+00 0.489D+00
 Gap=     0.120 Goal=   None    Shift=    0.000
 RMSDP=2.29D-05 MaxDP=9.54D-04 DE=-2.48D-03 OVMax= 2.39D-03

 Cycle   5  Pass 1  IDiag  1:
 RMSU=  1.33D-05    CP:  9.99D-01  8.66D-01  4.57D-01  4.34D-01
 E= -7517.80892604052     Delta-E=       -0.000041624751 Rises=F Damp=F
 DIIS: error= 1.08D-04 at cycle   5 NSaved=   5.
 NSaved= 5 IEnMin= 5 EnMin= -7517.80892604052     IErMin= 5 ErrMin= 1.08D-04
 ErrMax= 1.08D-04  0.00D+00 EMaxC= 1.00D-01 BMatC= 1.28D-05 BMatP= 7.73D-05
 IDIUse=3 WtCom= 9.99D-01 WtEn= 1.08D-03
 Coeff-Com: -0.864D-03 0.218D+00 0.945D-01 0.395D+00 0.294D+00
 Coeff-En:   0.000D+00 0.000D+00 0.000D+00 0.206D+00 0.794D+00
 Coeff:     -0.863D-03 0.218D+00 0.944D-01 0.394D+00 0.294D+00
 Gap=     0.120 Goal=   None    Shift=    0.000
 RMSDP=1.03D-05 MaxDP=3.81D-04 DE=-4.16D-05 OVMax= 1.52D-03

 Cycle   6  Pass 1  IDiag  1:
 RMSU=  3.95D-06    CP:  9.99D-01  8.70D-01  4.55D-01  6.60D-01  3.88D-01
 E= -7517.80894187506     Delta-E=       -0.000015834537 Rises=F Damp=F
 DIIS: error= 1.73D-05 at cycle   6 NSaved=   6.
 NSaved= 6 IEnMin= 6 EnMin= -7517.80894187506     IErMin= 6 ErrMin= 1.73D-05
 ErrMax= 1.73D-05  0.00D+00 EMaxC= 1.00D-01 BMatC= 5.60D-07 BMatP= 1.28D-05
 IDIUse=1 WtCom= 1.00D+00 WtEn= 0.00D+00
 Coeff-Com: -0.389D-03 0.683D-01 0.276D-01 0.152D+00 0.191D+00 0.561D+00
 Coeff:     -0.389D-03 0.683D-01 0.276D-01 0.152D+00 0.191D+00 0.561D+00
 Gap=     0.120 Goal=   None    Shift=    0.000
 RMSDP=2.58D-06 MaxDP=1.14D-04 DE=-1.58D-05 OVMax= 3.69D-04

 Cycle   7  Pass 1  IDiag  1:
 RMSU=  1.94D-06    CP:  9.99D-01  8.74D-01  4.56D-01  6.70D-01  4.81D-01
                    CP:  7.87D-01
 E= -7517.80894229119     Delta-E=       -0.000000416130 Rises=F Damp=F
 DIIS: error= 1.22D-05 at cycle   7 NSaved=   7.
 NSaved= 7 IEnMin= 7 EnMin= -7517.80894229119     IErMin= 7 ErrMin= 1.22D-05
 ErrMax= 1.22D-05  0.00D+00 EMaxC= 1.00D-01 BMatC= 1.68D-07 BMatP= 5.60D-07
 IDIUse=1 WtCom= 1.00D+00 WtEn= 0.00D+00
 Coeff-Com: -0.119D-03 0.740D-02 0.246D-02 0.359D-01 0.873D-01 0.403D+00
 Coeff-Com:  0.464D+00
 Coeff:     -0.119D-03 0.740D-02 0.246D-02 0.359D-01 0.873D-01 0.403D+00
 Coeff:      0.464D+00
 Gap=     0.120 Goal=   None    Shift=    0.000
 RMSDP=1.73D-06 MaxDP=6.78D-05 DE=-4.16D-07 OVMax= 2.07D-04

 Cycle   8  Pass 1  IDiag  1:
 RMSU=  1.08D-06    CP:  9.99D-01  8.74D-01  4.58D-01  6.65D-01  5.06D-01
                    CP:  9.56D-01  4.63D-01
 E= -7517.80894239815     Delta-E=       -0.000000106957 Rises=F Damp=F
 DIIS: error= 8.58D-06 at cycle   8 NSaved=   8.
 NSaved= 8 IEnMin= 8 EnMin= -7517.80894239815     IErMin= 8 ErrMin= 8.58D-06
 ErrMax= 8.58D-06  0.00D+00 EMaxC= 1.00D-01 BMatC= 8.85D-08 BMatP= 1.68D-07
 IDIUse=1 WtCom= 1.00D+00 WtEn= 0.00D+00
 Coeff-Com:  0.910D-05-0.149D-01-0.620D-02-0.143D-01 0.232D-01 0.207D+00
 Coeff-Com:  0.425D+00 0.379D+00
 Coeff:      0.910D-05-0.149D-01-0.620D-02-0.143D-01 0.232D-01 0.207D+00
 Coeff:      0.425D+00 0.379D+00
 Gap=     0.120 Goal=   None    Shift=    0.000
 RMSDP=9.00D-07 MaxDP=4.88D-05 DE=-1.07D-07 OVMax= 9.93D-05

 Cycle   9  Pass 1  IDiag  1:
 RMSU=  2.91D-07    CP:  9.99D-01  8.75D-01  4.59D-01  6.72D-01  5.15D-01
                    CP:  9.80D-01  6.84D-01  3.65D-01
 E= -7517.80894250929     Delta-E=       -0.000000111142 Rises=F Damp=F
 DIIS: error= 1.19D-06 at cycle   9 NSaved=   9.
 NSaved= 9 IEnMin= 9 EnMin= -7517.80894250929     IErMin= 9 ErrMin= 1.19D-06
 ErrMax= 1.19D-06  0.00D+00 EMaxC= 1.00D-01 BMatC= 3.33D-09 BMatP= 8.85D-08
 IDIUse=1 WtCom= 1.00D+00 WtEn= 0.00D+00
 Coeff-Com:  0.207D-04-0.968D-02-0.379D-02-0.126D-01 0.212D-02 0.721D-01
 Coeff-Com:  0.201D+00 0.232D+00 0.519D+00
 Coeff:      0.207D-04-0.968D-02-0.379D-02-0.126D-01 0.212D-02 0.721D-01
 Coeff:      0.201D+00 0.232D+00 0.519D+00
 Gap=     0.120 Goal=   None    Shift=    0.000
 RMSDP=1.87D-07 MaxDP=1.16D-05 DE=-1.11D-07 OVMax= 2.97D-05

 Cycle  10  Pass 1  IDiag  1:
 RMSU=  9.75D-08    CP:  9.99D-01  8.75D-01  4.59D-01  6.77D-01  5.17D-01
                    CP:  9.83D-01  6.88D-01  4.63D-01  8.21D-01
 E= -7517.80894251259     Delta-E=       -0.000000003298 Rises=F Damp=F
 DIIS: error= 2.27D-07 at cycle  10 NSaved=  10.
 NSaved=10 IEnMin=10 EnMin= -7517.80894251259     IErMin=10 ErrMin= 2.27D-07
 ErrMax= 2.27D-07  0.00D+00 EMaxC= 1.00D-01 BMatC= 9.99D-11 BMatP= 3.33D-09
 IDIUse=1 WtCom= 1.00D+00 WtEn= 0.00D+00
 Coeff-Com:  0.396D-05-0.965D-03-0.251D-03-0.198D-02-0.167D-02-0.267D-02
 Coeff-Com:  0.977D-02 0.170D-01 0.146D+00 0.834D+00
 Coeff:      0.396D-05-0.965D-03-0.251D-03-0.198D-02-0.167D-02-0.267D-02
 Coeff:      0.977D-02 0.170D-01 0.146D+00 0.834D+00
 Gap=     0.120 Goal=   None    Shift=    0.000
 RMSDP=6.19D-08 MaxDP=2.51D-06 DE=-3.30D-09 OVMax= 1.10D-05

 Cycle  11  Pass 1  IDiag  1:
 RMSU=  4.04D-08    CP:  9.99D-01  8.75D-01  4.60D-01  6.77D-01  5.18D-01
                    CP:  9.89D-01  6.95D-01  4.71D-01  9.19D-01  1.01D+00
 E= -7517.80894251294     Delta-E=       -0.000000000357 Rises=F Damp=F
 DIIS: error= 1.91D-07 at cycle  11 NSaved=  11.
 NSaved=11 IEnMin=11 EnMin= -7517.80894251294     IErMin=11 ErrMin= 1.91D-07
 ErrMax= 1.91D-07  0.00D+00 EMaxC= 1.00D-01 BMatC= 7.11D-11 BMatP= 9.99D-11
 IDIUse=1 WtCom= 1.00D+00 WtEn= 0.00D+00
 Coeff-Com:  0.328D-06 0.438D-03 0.265D-03 0.679D-04-0.124D-02-0.100D-01
 Coeff-Com: -0.158D-01-0.144D-01 0.507D-01 0.585D+00 0.405D+00
 Coeff:      0.328D-06 0.438D-03 0.265D-03 0.679D-04-0.124D-02-0.100D-01
 Coeff:     -0.158D-01-0.144D-01 0.507D-01 0.585D+00 0.405D+00
 Gap=     0.120 Goal=   None    Shift=    0.000
 RMSDP=3.55D-08 MaxDP=1.53D-06 DE=-3.57D-10 OVMax= 4.53D-06

 Cycle  12  Pass 1  IDiag  1:
 RMSU=  2.15D-08    CP:  9.99D-01  8.75D-01  4.60D-01  6.77D-01  5.19D-01
                    CP:  9.90D-01  6.98D-01  4.68D-01  9.31D-01  1.15D+00
                    CP:  4.51D-01
 E= -7517.80894251278     Delta-E=        0.000000000160 Rises=F Damp=F
 DIIS: error= 1.16D-07 at cycle  12 NSaved=  12.
 NSaved=12 IEnMin=11 EnMin= -7517.80894251294     IErMin=12 ErrMin= 1.16D-07
 ErrMax= 1.16D-07  0.00D+00 EMaxC= 1.00D-01 BMatC= 2.30D-11 BMatP= 7.11D-11
 IDIUse=1 WtCom= 1.00D+00 WtEn= 0.00D+00
 Coeff-Com: -0.607D-06 0.575D-03 0.274D-03 0.489D-03-0.572D-03-0.771D-02
 Coeff-Com: -0.155D-01-0.159D-01 0.937D-02 0.310D+00 0.342D+00 0.376D+00
 Coeff:     -0.607D-06 0.575D-03 0.274D-03 0.489D-03-0.572D-03-0.771D-02
 Coeff:     -0.155D-01-0.159D-01 0.937D-02 0.310D+00 0.342D+00 0.376D+00
 Gap=     0.120 Goal=   None    Shift=    0.000
 RMSDP=1.51D-08 MaxDP=6.36D-07 DE= 1.60D-10 OVMax= 1.71D-06

 Cycle  13  Pass 1  IDiag  1:
 RMSU=  7.55D-09    CP:  9.99D-01  8.75D-01  4.60D-01  6.77D-01  5.19D-01
                    CP:  9.91D-01  6.98D-01  4.68D-01  9.43D-01  1.17D+00
                    CP:  6.25D-01  5.38D-01
 E= -7517.80894251311     Delta-E=       -0.000000000322 Rises=F Damp=F
 DIIS: error= 2.67D-08 at cycle  13 NSaved=  13.
 NSaved=13 IEnMin=13 EnMin= -7517.80894251311     IErMin=13 ErrMin= 2.67D-08
 ErrMax= 2.67D-08  0.00D+00 EMaxC= 1.00D-01 BMatC= 1.67D-12 BMatP= 2.30D-11
 IDIUse=1 WtCom= 1.00D+00 WtEn= 0.00D+00
 Coeff-Com: -0.461D-06 0.278D-03 0.118D-03 0.304D-03-0.448D-04-0.281D-02
 Coeff-Com: -0.682D-02-0.705D-02-0.702D-02 0.684D-01 0.139D+00 0.243D+00
 Coeff-Com:  0.573D+00
 Coeff:     -0.461D-06 0.278D-03 0.118D-03 0.304D-03-0.448D-04-0.281D-02
 Coeff:     -0.682D-02-0.705D-02-0.702D-02 0.684D-01 0.139D+00 0.243D+00
 Coeff:      0.573D+00
 Gap=     0.120 Goal=   None    Shift=    0.000
 RMSDP=5.05D-09 MaxDP=3.52D-07 DE=-3.22D-10 OVMax= 7.82D-07

 SCF Done:  E(RPBE1PBE) =  -7517.80894251     A.U. after   13 cycles
            NFock= 13  Conv=0.50D-08     -V/T= 2.1284
 KE= 6.662153763183D+03 PE=-2.475910519160D+04 EE= 6.995294970030D+03
 Leave Link  502 at Tue Mar  6 16:27:07 2018, MaxMem=   536870912 cpu:      2715.4
 (Enter /share/apps//mg09/l701.exe)
 Compute integral first derivatives.
 ... and contract with generalized density number  0.
   1 Symmetry operations used in ECPInt.
 ECPInt:  NShTT=   10440 NPrTT=   41973 LenC2=    9682 LenP2D=   27644.
 LDataN:  DoStor=T MaxTD1= 9 Len=  602
 Leave Link  701 at Tue Mar  6 16:27:34 2018, MaxMem=   536870912 cpu:        89.3
 (Enter /share/apps//mg09/l702.exe)
 L702 exits ... SP integral derivatives will be done elsewhere.
 Leave Link  702 at Tue Mar  6 16:27:34 2018, MaxMem=   536870912 cpu:         0.1
 (Enter /share/apps//mg09/l703.exe)
 Compute integral first derivatives, UseDBF=F ICtDFT=           0.
 Integral derivatives from FoFJK, PRISM(SPDF).
 Calling FoFJK, ICntrl=      2127 FMM=F ISym2X=0 I1Cent= 0 IOpClX= 0 NMat=1 NMatS=1 NMatT=0.
 FoFJK:  IHMeth= 1 ICntrl=    2127 DoSepK=F KAlg= 0 I1Cent=   0 FoldK=F
 IRaf=         0 NMat=   1 IRICut=       1 DoRegI=T DoRafI=F ISym2E= 0.
 FoFCou: FMM=F IPFlag=           0 FMFlag=      100000 FMFlg1=         800
         NFxFlg=           0 DoJE=F BraDBF=F KetDBF=F FulRan=T
         wScrn=  0.000000 ICntrl=    2127 IOpCl=  0 I1Cent=           0 NGrid=           0
         NMat0=    1 NMatS0=      1 NMatT0=    0 NMatD0=    1 NMtDS0=    0 NMtDT0=    0
 Symmetry not used in FoFCou.
 Defaulting to unpruned grid for atomic number  50.
 Defaulting to unpruned grid for atomic number  50.
 Defaulting to unpruned grid for atomic number  50.
 Defaulting to unpruned grid for atomic number  50.
 Leave Link  703 at Tue Mar  6 16:31:22 2018, MaxMem=   536870912 cpu:       835.1
 (Enter /share/apps//mg09/l716.exe)
 Dipole        = 3.70946488D-02-2.60306186D-01-2.83231225D-01
 ***** Axes restored to original set *****
 -------------------------------------------------------------------
 Center     Atomic                   Forces (Hartrees/Bohr)
 Number     Number              X              Y              Z
 -------------------------------------------------------------------
      1       50           0.004825379   -0.000562966    0.001990809
      2       32           0.000233438   -0.005227107   -0.004576749
      3       83           0.000640589   -0.001467580   -0.000088441
      4       83          -0.002302676   -0.000489005   -0.000115312
      5       32          -0.003458408   -0.001925143    0.005975618
      6       32          -0.002544346    0.004347040   -0.005330747
      7       83           0.003283006   -0.000404302    0.000606014
      8       83          -0.001680139   -0.000421864    0.000240427
      9       50           0.001003158    0.006150928    0.001298381
 -------------------------------------------------------------------
 Cartesian Forces:  Max     0.006150928 RMS     0.003006601
 Leave Link  716 at Tue Mar  6 16:31:22 2018, MaxMem=   536870912 cpu:         0.0
 (Enter /share/apps//mg09/l103.exe)

 GradGradGradGradGradGradGradGradGradGradGradGradGradGradGradGradGradGrad
 Berny optimization.
 Search for a local minimum.
 Step number   2 out of a maximum of  100
 All quantities printed in internal units (Hartrees-Bohrs-Radians)
 Update second derivatives using D2CorN and points    1    2
 DE= -5.44D-03 DEPred=-4.03D-03 R= 1.35D+00
 TightC=F SS=  1.41D+00  RLast= 2.19D-01 DXNew= 5.0454D-01 6.5741D-01
 Trust test= 1.35D+00 RLast= 2.19D-01 DXMaxT set to 5.05D-01
 ITU=  1  0
     Eigenvalues ---    0.08701   0.09305   0.11216   0.11819   0.13338
     Eigenvalues ---    0.13955   0.14404   0.14892   0.15911   0.16699
     Eigenvalues ---    0.17140   0.21779   0.23314   0.23598   0.24725
     Eigenvalues ---    0.26822   0.27355   0.27734   0.27944   0.28425
     Eigenvalues ---    0.32301
 RFO step:  Lambda=-3.35630257D-04 EMin= 8.70057288D-02
 Quartic linear search produced a step of  0.59931.
 TrRot= -0.000120 -0.000198 -0.000068 -0.000013  0.000019 -0.000013
 MatCor failed.
 Variable       Old X    -DE/DX   Delta X   Delta X   Delta X     New X
                                 (Linear)    (Quad)   (Total)
    X1       -3.84654   0.00483   0.04073   0.00510   0.04563  -3.80092
    Y1       -0.65809  -0.00056  -0.00028  -0.00542  -0.00580  -0.66389
    Z1       -3.62931   0.00199   0.03119  -0.00495   0.02625  -3.60307
    X2        0.01303   0.00023   0.00336   0.00288   0.00625   0.01928
    Y2        2.24937  -0.00523  -0.03360  -0.01021  -0.04401   2.20536
    Z2        4.26090  -0.00458  -0.03442  -0.00519  -0.03968   4.22122
    X3       -1.96035   0.00064   0.01209  -0.00728   0.00478  -1.95557
    Y3        3.82891  -0.00147  -0.03198   0.00976  -0.02237   3.80654
    Z3       -0.74116  -0.00009   0.00738  -0.00184   0.00551  -0.73565
    X4        4.22462  -0.00230  -0.03367   0.00828  -0.02558   4.19904
    Y4       -2.47249  -0.00049   0.01870  -0.01378   0.00461  -2.46788
    Z4       -0.37882  -0.00012   0.00375  -0.00141   0.00219  -0.37663
[...]
     X       X            X         X  X      X                  X       X                                                           
     X       X            X         X  X                                                                                             
     X       X                      X  X                                                                                             
     X       X                      X                                                                                                
     X       X                      X                                                                                                
     X       X                      X                                                                                                
     X       X                      X                                                                                                
             X                                                                                                                       
             X                                                                                                                       
             X                                                                                                                       
             X                                                                                                                       
             X                                                                                                                       
             X                                                                                                                       
             X                                                                                                                       
             X                                                                                                                       
 
 ***** Axes restored to original set *****
 -------------------------------------------------------------------
 Center     Atomic                   Forces (Hartrees/Bohr)
 Number     Number              X              Y              Z
 -------------------------------------------------------------------
      1       50           0.000062874   -0.000006270    0.000026848
      2       32           0.000035023   -0.000026110   -0.000036464
      3       83          -0.000105461    0.000037159    0.000099443
      4       83          -0.000025199    0.000058494   -0.000002165
      5       32           0.000049367   -0.000013531   -0.000022312
      6       32           0.000053720   -0.000011998   -0.000012305
      7       83          -0.000042336    0.000012218    0.000016694
      8       83          -0.000013225    0.000026877   -0.000101733
      9       50          -0.000014761   -0.000076839    0.000031993
 -------------------------------------------------------------------
 Cartesian Forces:  Max     0.000105461 RMS     0.000047655
 Force constants in Cartesian coordinates: 
                1             2             3             4             5 
      1  0.604832D-01
      2  0.242633D-02  0.472120D-01
      3  0.208328D-01  0.399204D-02  0.538804D-01
      4  0.266547D-03 -0.315355D-02 -0.319842D-02  0.435005D-01
      5 -0.161878D-03  0.754098D-03 -0.166160D-03  0.129051D-01  0.556975D-01
      6  0.108567D-02 -0.244062D-02 -0.280560D-02 -0.285641D-02  0.100533D-01
      7 -0.577911D-02 -0.940920D-02 -0.851105D-02  0.535115D-03  0.304037D-02
      8 -0.837351D-02 -0.284417D-01 -0.162098D-01  0.464456D-02 -0.901386D-02
      9 -0.786033D-02 -0.148782D-01 -0.908208D-02 -0.919628D-02  0.489503D-02
     10 -0.288060D-02  0.696561D-03  0.336994D-03 -0.141469D-03 -0.110110D-02
     11 -0.163248D-02 -0.338913D-02  0.161183D-03  0.312366D-02 -0.368822D-02
     12 -0.141397D-02  0.198742D-02 -0.147979D-02  0.614913D-02 -0.224781D-02
     13 -0.342238D-01 -0.528217D-02  0.309979D-02 -0.153239D-02  0.254557D-02
     14 -0.421976D-02 -0.391481D-03  0.713909D-03  0.476615D-02  0.623029D-03
     15 -0.162472D-02  0.354877D-03 -0.182878D-02  0.179916D-02  0.362105D-02
     16 -0.490652D-03  0.343547D-02 -0.273814D-02 -0.137604D-02  0.535756D-02
     17  0.451549D-03 -0.184219D-02 -0.130324D-02  0.433131D-02 -0.306826D-01
     18  0.351231D-03  0.769101D-03 -0.242813D-02 -0.176653D-02 -0.569594D-02
     19 -0.427418D-02 -0.670051D-03  0.602230D-04 -0.186859D-01 -0.164180D-01
     20 -0.129071D-03  0.198996D-02  0.246653D-02 -0.196466D-01 -0.912235D-02
     21  0.562912D-03  0.191821D-02 -0.280737D-01 -0.636507D-02 -0.777170D-02
     22 -0.263289D-02 -0.331782D-02  0.415272D-03 -0.182698D-01 -0.794789D-02
     23  0.445372D-03 -0.367052D-04  0.908785D-03 -0.586317D-02 -0.716406D-03
     24 -0.158071D-02 -0.203462D-02 -0.227035D-02  0.167274D-01  0.228296D-02
     25 -0.104685D-01  0.152744D-01 -0.102975D-01 -0.429660D-02  0.178025D-02
     26  0.111935D-01 -0.158548D-01  0.943671D-02 -0.110741D-02 -0.385114D-02
     27 -0.103529D-01  0.103318D-01 -0.591199D-02 -0.129296D-02 -0.497072D-02
                6             7             8             9            10 
      6  0.663819D-01
      7 -0.645332D-02  0.698802D-01
      8  0.670220D-02 -0.785114D-02  0.713173D-01
      9 -0.188805D-01  0.182412D-01 -0.234012D-02  0.411464D-01
     10 -0.266322D-03 -0.127025D-03  0.102466D-02  0.108586D-02  0.833928D-01
     11 -0.274043D-03  0.931491D-02 -0.771223D-03 -0.170990D-02 -0.637734D-02
     12 -0.238447D-02 -0.167020D-02  0.137156D-02 -0.219092D-02  0.249704D-02
     13 -0.110389D-02 -0.226062D-02  0.408362D-02  0.208813D-02 -0.139317D-01
     14 -0.521732D-02  0.687456D-02 -0.343761D-02 -0.183230D-02  0.970217D-02
     15 -0.654353D-02  0.404434D-02 -0.323100D-03 -0.610792D-02 -0.106554D-01
     16 -0.161284D-02 -0.402699D-02  0.293344D-02 -0.302944D-02 -0.179365D-01
     17 -0.454358D-03 -0.637999D-03 -0.421328D-02  0.853986D-02  0.591510D-03
     18 -0.419144D-02  0.486950D-03  0.223475D-02 -0.365634D-02  0.138589D-01
     19 -0.463303D-02 -0.542681D-02 -0.622524D-02  0.335427D-02 -0.481499D-02
     20 -0.977943D-02 -0.443702D-02 -0.133288D-01  0.105198D-01  0.114710D-02
     21 -0.703913D-02  0.187538D-02  0.815121D-02 -0.439198D-02  0.665118D-03
     22  0.161140D-01 -0.504197D-01  0.780823D-02 -0.789865D-02 -0.504244D-02
     23  0.106641D-02  0.657404D-02 -0.497551D-02 -0.393210D-03  0.693151D-02
     24 -0.218333D-01 -0.112105D-01 -0.135994D-02  0.228670D-02 -0.207242D-02
     25 -0.273854D-03 -0.237501D-02  0.195539D-02  0.321520D-02 -0.385180D-01
     26  0.343866D-03 -0.346852D-02 -0.713532D-02 -0.280095D-02 -0.126151D-01
     27 -0.270404D-02  0.319717D-02  0.177319D-02  0.876573D-03 -0.544973D-02
               11            12            13            14            15 
     11  0.739084D-01
     12 -0.513408D-02  0.392771D-01
     13  0.891702D-02 -0.123746D-01  0.581230D-01
     14 -0.663702D-02  0.112332D-01  0.556848D-03  0.253879D-01
     15  0.126010D-01 -0.186632D-01  0.680044D-02 -0.445197D-02  0.629890D-01
     16 -0.106168D-02  0.138296D-01  0.931174D-03 -0.566513D-02  0.227472D-02
     17  0.141818D-02  0.310869D-02 -0.208203D-02 -0.191941D-02 -0.227412D-02
     18  0.416668D-02 -0.207896D-01 -0.362719D-02  0.555043D-02 -0.642076D-02
     19 -0.231756D-02  0.781809D-03 -0.543812D-03  0.139601D-03  0.140000D-02
     20 -0.218949D-02 -0.371331D-02 -0.624987D-03 -0.457500D-02  0.489756D-04
     21 -0.236991D-03 -0.214444D-03  0.798045D-02  0.127044D-02 -0.551346D-02
     22  0.501258D-02 -0.170959D-02 -0.642706D-02 -0.851762D-02 -0.603119D-02
     23 -0.518279D-01 -0.513660D-02 -0.606945D-02 -0.389441D-02 -0.939073D-02
     24 -0.550938D-02  0.354640D-02 -0.478294D-02 -0.987851D-02 -0.140597D-01
     25 -0.149791D-01 -0.608916D-02 -0.134825D-03 -0.363681D-02  0.199263D-02
     26 -0.682354D-02 -0.146911D-02 -0.204443D-02 -0.515599D-02 -0.185955D-03
     27 -0.406443D-02  0.289891D-02  0.191985D-02  0.261209D-02 -0.385171D-02
               16            17            18            19            20 
     16  0.586379D-01
     17 -0.160493D-01  0.485852D-01
     18  0.399629D-02 -0.872474D-02  0.610051D-01
     19 -0.365495D-01  0.120397D-01 -0.712618D-02  0.860023D-01
     20  0.139484D-01 -0.159884D-02  0.661106D-02  0.423639D-02  0.421577D-01
     21 -0.109397D-01  0.362601D-02 -0.750652D-02 -0.407756D-02  0.269314D-02
     22 -0.620165D-03  0.331668D-02 -0.877868D-04 -0.547421D-02 -0.380675D-02
     23 -0.249373D-02 -0.385845D-02 -0.181041D-03  0.148659D-02 -0.213267D-02
     24  0.490302D-02  0.286125D-02 -0.105512D-02  0.119947D-02  0.475824D-02
     25  0.143082D-02 -0.196138D-02 -0.608564D-02 -0.102328D-01  0.931259D-02
     26 -0.405025D-03 -0.588857D-02 -0.473030D-02  0.772858D-02 -0.112005D-01
     27 -0.668346D-02 -0.537934D-02 -0.149572D-01  0.904099D-02 -0.136050D-01
               21            22            23            24            25 
     21  0.604705D-01
     22  0.465658D-03  0.863556D-01
     23  0.115210D-02  0.592872D-02  0.729458D-01
     24  0.280508D-03 -0.470545D-03  0.102537D-01  0.365555D-01
     25  0.983284D-02  0.253061D-02 -0.693988D-02 -0.271275D-02  0.620644D-01
     26 -0.108024D-01  0.152389D-02 -0.550369D-02 -0.137372D-02 -0.805487D-03
     27 -0.801186D-02 -0.797153D-03  0.172054D-02 -0.345075D-02  0.104182D-01
               26            27 
     26  0.614136D-01
     27  0.115819D-01  0.351121D-01
 Leave Link  716 at Tue Mar  6 20:17:23 2018, MaxMem=   536870912 cpu:         0.1
 (Enter /share/apps//mg09/l103.exe)

 GradGradGradGradGradGradGradGradGradGradGradGradGradGradGradGradGradGrad
 Berny optimization.
 Search for a local minimum.
 Step number   1 out of a maximum of    2
 All quantities printed in internal units (Hartrees-Bohrs-Radians)
 Second derivative matrix not updated -- analytic derivatives used.
 ITU=  0
     Eigenvalues ---    0.00432   0.01379   0.02251   0.03482   0.04212
     Eigenvalues ---    0.04758   0.05492   0.05508   0.05772   0.06164
     Eigenvalues ---    0.06350   0.06994   0.08052   0.08648   0.09141
     Eigenvalues ---    0.10263   0.12069   0.12741   0.13311   0.14386
     Eigenvalues ---    0.14751
 Angle between quadratic step and forces=  49.33 degrees.
 Linear search not attempted -- first point.
 TrRot=  0.000177 -0.000358  0.000008 -0.000035  0.000004 -0.000035
 Variable       Old X    -DE/DX   Delta X   Delta X   Delta X     New X
                                 (Linear)    (Quad)   (Total)
    X1       -3.81982   0.00006   0.00000   0.00417   0.00429  -3.81553
    Y1       -0.65502  -0.00001   0.00000   0.00272   0.00263  -0.65240
    Z1       -3.60511   0.00003   0.00000  -0.00276  -0.00274  -3.60784
    X2        0.03749   0.00004   0.00000   0.00940   0.00975   0.04723
    Y2        2.17072  -0.00003   0.00000  -0.00498  -0.00534   2.16537
    Z2        4.20173  -0.00004   0.00000  -0.00112  -0.00111   4.20062
    X3       -1.95439  -0.00011   0.00000  -0.00781  -0.00737  -1.96176
    Y3        3.82608   0.00004   0.00000   0.00050   0.00028   3.82636
    Z3       -0.74542   0.00010   0.00000   0.00953   0.00955  -0.73587
    X4        4.23730  -0.00003   0.00000  -0.00168  -0.00168   4.23562
    Y4       -2.47063   0.00006   0.00000   0.00549   0.00483  -2.46580
    Z4       -0.34913   0.00000   0.00000   0.00814   0.00813  -0.34100
    X5        1.37529   0.00005   0.00000   0.00430   0.00447   1.37976
    Y5        0.15251  -0.00001   0.00000  -0.00626  -0.00672   0.14579
    Z5       -4.06705  -0.00002   0.00000  -0.00065  -0.00064  -4.06770
    X6        0.83451   0.00005   0.00000  -0.00526  -0.00526   0.82925
    Y6       -2.76414  -0.00001   0.00000  -0.00620  -0.00662  -2.77076
    Z6        3.88507  -0.00001   0.00000   0.00176   0.00177   3.88683
    X7       -3.86542  -0.00004   0.00000  -0.00176  -0.00165  -3.86707
    Y7       -1.04892   0.00001   0.00000   0.00402   0.00394  -1.04498
    Z7        2.23088   0.00002   0.00000  -0.00162  -0.00160   2.22928
    X8        3.50901  -0.00001   0.00000  -0.00266  -0.00227   3.50675
    Y8        3.08610   0.00003   0.00000   0.00791   0.00731   3.09341
    Z8        0.17881  -0.00010   0.00000  -0.01263  -0.01264   0.16617
    X9       -0.79465  -0.00001   0.00000  -0.00013  -0.00029  -0.79494
    Y9       -4.67511  -0.00008   0.00000  -0.00001  -0.00031  -4.67542
    Z9       -1.11225   0.00003   0.00000  -0.00073  -0.00072  -1.11296
         Item               Value     Threshold  Converged?
 Maximum Force            0.000105     0.000450     YES
 RMS     Force            0.000048     0.000300     YES
 Maximum Displacement     0.012638     0.001800     NO 
 RMS     Displacement     0.005359     0.001200     NO 
 Predicted change in Energy=-2.209138D-06
 GradGradGradGradGradGradGradGradGradGradGradGradGradGradGradGradGradGrad

 Leave Link  103 at Tue Mar  6 20:17:23 2018, MaxMem=   536870912 cpu:         0.0
 (Enter /share/apps//mg09/l9999.exe)
 1\1\GINC-COMPUTE-0-0\Freq\RPBE1PBE\def2TZVP\Bi4Ge3Sn2\RODRIGO\06-Mar-2
 018\0\\#P Geom=AllCheck Guess=TCheck SCRF=Check GenChk RPBE1PBE/def2TZ
 VP Freq\\01Final_coords.xyz_52\\0,1\Sn,-2.0213642981,-0.3466229294,-1.
 9077418529\Ge,0.0198366267,1.1486929749,2.2234621582\Bi,-1.0342179111,
 2.024673668,-0.3944595223\Bi,2.2422828044,-1.3074028431,-0.1847501125\
 Ge,0.7277697257,0.0807041363,-2.1521928084\Ge,0.4416032358,-1.46272056
 21,2.0558886971\Bi,-2.0454932455,-0.5550639508,1.1805319423\Bi,1.85688
 97146,1.6330933492,0.0946225531\Sn,-0.4205126523,-2.473961843,-0.58857
 60545\\Version=ES64L-G09RevD.01\State=1-A\HF=-7517.8104829\RMSD=8.245e
 -09\RMSF=4.765e-05\ZeroPoint=0.0057431\Thermal=0.0232781\Dipole=-0.027
 5633,0.2869768,-0.2941087\DipoleDeriv=0.2114254,0.0199283,0.3103165,0.
 0363826,-0.0996812,0.0244747,0.2211012,0.014425,0.1935352,-0.1358827,-
 0.0583071,-0.0816976,0.0206269,-0.0974229,0.1789773,0.0279944,0.072899
 7,-0.0006212,0.0380445,-0.0607845,-0.0490874,0.0514703,0.0042629,0.006
 8569,-0.0629833,0.0200585,0.0302116,0.0470337,-0.0890193,0.003971,-0.1
 174955,-0.0759688,0.066739,-0.05121,0.1038805,-0.0844111,-0.0710851,-0
 .0307575,-0.0800473,-0.0270675,0.0212362,-0.011295,-0.0636143,-0.00646
 88,-0.0426202,-0.0910283,0.0799854,0.0164204,0.016075,-0.1272703,-0.21
 28912,-0.0012038,-0.0467972,-0.0454299,0.0511537,-0.0007578,-0.1340818
 ,-0.0505788,0.074869,-0.0638379,-0.0071451,-0.083763,-0.0547258,-0.018
 6004,0.078596,0.0735473,0.0475943,0.0253571,-0.0507572,-0.012497,-0.12
 61378,-0.0557783,-0.031061,0.0611166,-0.0593412,0.0229928,0.2746181,0.
 0617334,-0.0504421,0.0519031,0.0598397\Polar=387.4672837,2.8359872,381
 .2496726,13.6462249,4.9033672,365.0977312\PG=C01 [X(Bi4Ge3Sn2)]\NImag=
 0\\0.06048324,0.00242633,0.04721203,0.02083278,0.00399204,0.05388037,0
 .00026655,-0.00315355,-0.00319842,0.04350055,-0.00016188,0.00075410,-0
 .00016616,0.01290509,0.05569748,0.00108567,-0.00244062,-0.00280560,-0.
 00285641,0.01005329,0.06638193,-0.00577911,-0.00940920,-0.00851105,0.0
 0053512,0.00304037,-0.00645332,0.06988015,-0.00837351,-0.02844173,-0.0
 1620976,0.00464456,-0.00901386,0.00670220,-0.00785114,0.07131728,-0.00
 786033,-0.01487821,-0.00908208,-0.00919628,0.00489503,-0.01888048,0.01
 824123,-0.00234012,0.04114644,-0.00288060,0.00069656,0.00033699,-0.000
 14147,-0.00110110,-0.00026632,-0.00012702,0.00102466,0.00108586,0.0833
 9277,-0.00163248,-0.00338913,0.00016118,0.00312366,-0.00368822,-0.0002
 7404,0.00931491,-0.00077122,-0.00170990,-0.00637734,0.07390838,-0.0014
 1397,0.00198742,-0.00147979,0.00614913,-0.00224781,-0.00238447,-0.0016
 7020,0.00137156,-0.00219092,0.00249704,-0.00513408,0.03927708,-0.03422
 381,-0.00528217,0.00309979,-0.00153239,0.00254557,-0.00110389,-0.00226
 062,0.00408362,0.00208813,-0.01393168,0.00891702,-0.01237464,0.0581230
 2,-0.00421976,-0.00039148,0.00071391,0.00476615,0.00062303,-0.00521732
 ,0.00687456,-0.00343761,-0.00183230,0.00970217,-0.00663702,0.01123324,
 0.00055685,0.02538789,-0.00162472,0.00035488,-0.00182878,0.00179916,0.
 00362105,-0.00654353,0.00404434,-0.00032310,-0.00610792,-0.01065539,0.
 01260097,-0.01866316,0.00680044,-0.00445197,0.06298899,-0.00049065,0.0
 0343547,-0.00273814,-0.00137604,0.00535756,-0.00161284,-0.00402699,0.0
 0293344,-0.00302944,-0.01793653,-0.00106168,0.01382957,0.00093117,-0.0
 0566513,0.00227472,0.05863793,0.00045155,-0.00184219,-0.00130324,0.004
 33131,-0.03068263,-0.00045436,-0.00063800,-0.00421328,0.00853986,0.000
 59151,0.00141818,0.00310869,-0.00208203,-0.00191941,-0.00227412,-0.016
 04930,0.04858520,0.00035123,0.00076910,-0.00242813,-0.00176653,-0.0056
 9594,-0.00419144,0.00048695,0.00223475,-0.00365634,0.01385886,0.004166
 68,-0.02078962,-0.00362719,0.00555043,-0.00642076,0.00399629,-0.008724
 74,0.06100515,-0.00427418,-0.00067005,0.00006022,-0.01868593,-0.016417
 97,-0.00463303,-0.00542681,-0.00622524,0.00335427,-0.00481499,-0.00231
 756,0.00078181,-0.00054381,0.00013960,0.00140000,-0.03654954,0.0120396
 6,-0.00712618,0.08600226,-0.00012907,0.00198996,0.00246653,-0.01964663
 ,-0.00912235,-0.00977943,-0.00443702,-0.01332875,0.01051980,0.00114710
 ,-0.00218949,-0.00371331,-0.00062499,-0.00457500,0.00004898,0.01394840
 ,-0.00159884,0.00661106,0.00423639,0.04215766,0.00056291,0.00191821,-0
 .02807365,-0.00636507,-0.00777170,-0.00703913,0.00187538,0.00815121,-0
 .00439198,0.00066512,-0.00023699,-0.00021444,0.00798045,0.00127044,-0.
 00551346,-0.01093973,0.00362601,-0.00750652,-0.00407756,0.00269314,0.0
 6047055,-0.00263289,-0.00331782,0.00041527,-0.01826978,-0.00794789,0.0
 1611398,-0.05041970,0.00780823,-0.00789865,-0.00504244,0.00501258,-0.0
 0170959,-0.00642706,-0.00851762,-0.00603119,-0.00062016,0.00331668,-0.
 00008779,-0.00547421,-0.00380675,0.00046566,0.08635564,0.00044537,-0.0
 0003671,0.00090878,-0.00586317,-0.00071641,0.00106641,0.00657404,-0.00
 497551,-0.00039321,0.00693151,-0.05182794,-0.00513660,-0.00606945,-0.0
 0389441,-0.00939073,-0.00249373,-0.00385845,-0.00018104,0.00148659,-0.
 00213267,0.00115210,0.00592872,0.07294578,-0.00158071,-0.00203462,-0.0
 0227035,0.01672737,0.00228296,-0.02183326,-0.01121050,-0.00135994,0.00
 228670,-0.00207242,-0.00550938,0.00354640,-0.00478294,-0.00987851,-0.0
 1405968,0.00490302,0.00286125,-0.00105512,0.00119947,0.00475824,0.0002
 8051,-0.00047055,0.01025374,0.03655554,-0.01046854,0.01527443,-0.01029
 745,-0.00429660,0.00178025,-0.00027385,-0.00237501,0.00195539,0.003215
 20,-0.03851804,-0.01497909,-0.00608916,-0.00013482,-0.00363681,0.00199
 263,0.00143082,-0.00196138,-0.00608564,-0.01023279,0.00931259,0.009832
 84,0.00253061,-0.00693988,-0.00271275,0.06206437,0.01119346,-0.0158548
 5,0.00943671,-0.00110741,-0.00385114,0.00034387,-0.00346852,-0.0071353
 2,-0.00280095,-0.01261506,-0.00682354,-0.00146911,-0.00204443,-0.00515
 599,-0.00018595,-0.00040502,-0.00588857,-0.00473030,0.00772858,-0.0112
 0052,-0.01080241,0.00152389,-0.00550369,-0.00137372,-0.00080549,0.0614
 1361,-0.01035288,0.01033180,-0.00591199,-0.00129296,-0.00497072,-0.002
 70404,0.00319717,0.00177319,0.00087657,-0.00544973,-0.00406443,0.00289
 891,0.00191985,0.00261209,-0.00385171,-0.00668346,-0.00537934,-0.01495
 722,0.00904099,-0.01360500,-0.00801186,-0.00079715,0.00172054,-0.00345
 075,0.01041818,0.01158187,0.03511209\\-0.00006287,0.00000627,-0.000026
 85,-0.00003502,0.00002611,0.00003646,0.00010546,-0.00003716,-0.0000994
 4,0.00002520,-0.00005849,0.00000216,-0.00004937,0.00001353,0.00002231,
 -0.00005372,0.00001200,0.00001230,0.00004234,-0.00001222,-0.00001669,0
 .00001323,-0.00002688,0.00010173,0.00001476,0.00007684,-0.00003199\\\@


 YOU CAN LEAD A BOY TO COLLEGE....
 BUT YOU CANNOT MAKE HIM THINK....
           ELBERT HUBBARD
 Job cpu time:       0 days  4 hours 37 minutes 26.3 seconds.
 File lengths (MBytes):  RWF=    299 Int=      0 D2E=      0 Chk=     16 Scr=      1
 Normal termination of Gaussian 09 at Tue Mar  6 20:17:25 2018.
