 Entering Gaussian System, Link 0=/share/apps/mg09/g09
 Initial command:
 /share/apps//mg09/l1.exe "/state/partition1/gauss_tmp/Gau-6130.inp" -scrdir="/state/partition1/gauss_tmp/"
 Entering Link 1 = /share/apps//mg09/l1.exe PID=      6153.
  
 Copyright (c) 1988,1990,1992,1993,1995,1998,2003,2009,2013,
            Gaussian, Inc.  All Rights Reserved.
  
 This is part of the Gaussian(R) 09 program.  It is based on
 the Gaussian(R) 03 system (copyright 2003, Gaussian, Inc.),
 the Gaussian(R) 98 system (copyright 1998, Gaussian, Inc.),
 the Gaussian(R) 94 system (copyright 1995, Gaussian, Inc.),
 the Gaussian 92(TM) system (copyright 1992, Gaussian, Inc.),
 the Gaussian 90(TM) system (copyright 1990, Gaussian, Inc.),
 the Gaussian 88(TM) system (copyright 1988, Gaussian, Inc.),
 the Gaussian 86(TM) system (copyright 1986, Carnegie Mellon
 University), and the Gaussian 82(TM) system (copyright 1983,
 Carnegie Mellon University). Gaussian is a federally registered
 trademark of Gaussian, Inc.
  
 This software contains proprietary and confidential information,
 including trade secrets, belonging to Gaussian, Inc.
  
 This software is provided under written license and may be
 used, copied, transmitted, or stored only in accord with that
 written license.
  
 The following legend is applicable only to US Government
 contracts under FAR:
  
                    RESTRICTED RIGHTS LEGEND
  
 Use, reproduction and disclosure by the US Government is
 subject to restrictions as set forth in subparagraphs (a)
 and (c) of the Commercial Computer Software - Restricted
 Rights clause in FAR 52.227-19.
  
 Gaussian, Inc.
 340 Quinnipiac St., Bldg. 40, Wallingford CT 06492
  
  
 ---------------------------------------------------------------
 Warning -- This program may not be used in any manner that
 competes with the business of Gaussian, Inc. or will provide
 assistance to any competitor of Gaussian, Inc.  The licensee
 of this program is prohibited from giving any competitor of
 Gaussian, Inc. access to this program.  By using this program,
 the user acknowledges that Gaussian, Inc. is engaged in the
 business of creating and licensing software in the field of
 computational chemistry and represents and warrants to the
 licensee that it is not a competitor of Gaussian, Inc. and that
 it will not use this program in any manner prohibited above.
 ---------------------------------------------------------------
  

 Cite this work as:
 Gaussian 09, Revision D.01,
 M. J. Frisch, G. W. Trucks, H. B. Schlegel, G. E. Scuseria, 
 M. A. Robb, J. R. Cheeseman, G. Scalmani, V. Barone, B. Mennucci, 
 G. A. Petersson, H. Nakatsuji, M. Caricato, X. Li, H. P. Hratchian, 
 A. F. Izmaylov, J. Bloino, G. Zheng, J. L. Sonnenberg, M. Hada, 
 M. Ehara, K. Toyota, R. Fukuda, J. Hasegawa, M. Ishida, T. Nakajima, 
 Y. Honda, O. Kitao, H. Nakai, T. Vreven, J. A. Montgomery, Jr., 
 J. E. Peralta, F. Ogliaro, M. Bearpark, J. J. Heyd, E. Brothers, 
 K. N. Kudin, V. N. Staroverov, T. Keith, R. Kobayashi, J. Normand, 
 K. Raghavachari, A. Rendell, J. C. Burant, S. S. Iyengar, J. Tomasi, 
 M. Cossi, N. Rega, J. M. Millam, M. Klene, J. E. Knox, J. B. Cross, 
 V. Bakken, C. Adamo, J. Jaramillo, R. Gomperts, R. E. Stratmann, 
 O. Yazyev, A. J. Austin, R. Cammi, C. Pomelli, J. W. Ochterski, 
 R. L. Martin, K. Morokuma, V. G. Zakrzewski, G. A. Voth, 
 P. Salvador, J. J. Dannenberg, S. Dapprich, A. D. Daniels, 
 O. Farkas, J. B. Foresman, J. V. Ortiz, J. Cioslowski, 
 and D. J. Fox, Gaussian, Inc., Wallingford CT, 2013.
 
 ******************************************
 Gaussian 09:  ES64L-G09RevD.01 24-Apr-2013
                 6-Mar-2018 
 ******************************************
 %NProcShared=4
 Will use up to    4 processors via shared memory.
 %LindaWorkers=compute-0-11
 %chk=Isomer_11.chk
 %NProc=4
 Will use up to    4 processors via shared memory.
 %mem=4GB
 SetLPE:  input flags=" -vv -opt "Tsnet.Node.lindarsharg: ssh" "
 SetLPE:    new flags=" -vv -opt "Tsnet.Node.lindarsharg: ssh"  -nodelist 'compute-0-11.local'"
 Will use up to    1 processors via Linda.
 ----------------------------------------------------------------------
 #p PBE1PBE/Def2TZVP scf=(maxcycle=768) opt=(cartesian,maxcycle=512) fr
 eq
 ----------------------------------------------------------------------
 1/6=512,10=7,14=-1,18=10,26=3,38=1/1,3;
 2/12=2,17=6,18=5,29=2,40=1/2;
 3/5=44,7=101,11=2,16=1,25=1,30=1,71=1,74=-13/1,2,3;
 4//1;
 5/5=2,7=768,38=5/2;
 6/7=2,8=2,9=2,10=2,28=1/1;
 7/7=1,29=1/1,2,3,16;
 1/6=512,10=7,14=-1,18=10,26=3/3(2);
 2/29=1/2;
 99/12=1/99;
 2/29=1/2;
 3/5=44,7=101,11=2,16=1,25=1,30=1,71=1,74=-13/1,2,3;
 4/5=5,16=3,69=1/1;
 5/5=2,7=768,38=5/2;
 7/7=1/1,2,3,16;
 1/6=512,14=-1,18=10,26=3/3(-5);
 2/29=1/2;
 6/7=2,8=2,9=2,10=2,19=2,28=1/1;
 99/9=1,12=1/99;
 Leave Link    1 at Tue Mar  6 11:56:29 2018, MaxMem=   536870912 cpu:         0.7
 (Enter /share/apps//mg09/l101.exe)
 ---------------------
 01Final_coords.xyz_11
 ---------------------
 Symbolic Z-matrix:
 Charge =  0 Multiplicity = 1
 50                   -0.65677   2.69254   0.02957 
 50                   -0.76054  -1.64271   1.84906 
 83                    1.97908  -1.33914   0.53276 
 32                   -0.32312   0.77037  -2.36479 
 32                    1.10156   1.0061    2.07164 
 83                   -0.36624  -1.94003  -1.30983 
 32                   -1.6137    1.06487   2.24081 
 83                   -2.42348   0.11291  -0.3947 
 83                    1.98647   1.43837  -0.71084 
 
 NAtoms=      9 NQM=        9 NQMF=       0 NMMI=      0 NMMIF=      0
                NMic=       0 NMicF=      0.
                    Isotopes and Nuclear Properties:
 (Nuclear quadrupole moments (NQMom) in fm**2, nuclear magnetic moments (NMagM)
  in nuclear magnetons)

  Atom         1           2           3           4           5           6           7           8           9
 IAtWgt=         118         118         209          74          74         209          74         209         209
 AtmWgt= 117.9018000 117.9018000 208.9804000  73.9211788  73.9211788 208.9804000  73.9211788 208.9804000 208.9804000
 NucSpn=           0           0           9           0           0           9           0           9           9
 AtZEff=   0.0000000   0.0000000   0.0000000   0.0000000   0.0000000   0.0000000   0.0000000   0.0000000   0.0000000
 NQMom=    0.0000000   0.0000000 -51.6000000   0.0000000   0.0000000 -51.6000000   0.0000000 -51.6000000 -51.6000000
 NMagM=    0.0000000   0.0000000   4.1106000   0.0000000   0.0000000   4.1106000   0.0000000   4.1106000   4.1106000
 AtZNuc=  50.0000000  50.0000000  83.0000000  32.0000000  32.0000000  83.0000000  32.0000000  83.0000000  83.0000000
 Leave Link  101 at Tue Mar  6 11:56:40 2018, MaxMem=   536870912 cpu:         0.3
 (Enter /share/apps//mg09/l103.exe)

 GradGradGradGradGradGradGradGradGradGradGradGradGradGradGradGradGradGrad
 Berny optimization.
 Initialization pass.
 No Z-matrix variables, so optimization will use Cartesian coordinates.
 Trust Radius=3.00D-01 FncErr=1.00D-07 GrdErr=1.00D-06
 Number of steps in this run=    100 maximum allowed number of steps=    100.
 GradGradGradGradGradGradGradGradGradGradGradGradGradGradGradGradGradGrad

 Leave Link  103 at Tue Mar  6 11:56:55 2018, MaxMem=   536870912 cpu:         0.1
 (Enter /share/apps//mg09/l202.exe)
 ---------------------------------------------------------------------------------------------------
                            Z-MATRIX (ANGSTROMS AND DEGREES)
   CD    Cent   Atom    N1       Length/X        N2       Alpha/Y        N3        Beta/Z          J
 ---------------------------------------------------------------------------------------------------
      1      1  Sn       0  -0.656771          2.692541          0.029569
      2      2  Sn       0  -0.760538         -1.642707          1.849063
      3      3  Bi       0   1.979080         -1.339141          0.532757
      4      4  Ge       0  -0.323115          0.770372         -2.364789
      5      5  Ge       0   1.101556          1.006103          2.071643
      6      6  Bi       0  -0.366235         -1.940025         -1.309832
      7      7  Ge       0  -1.613698          1.064870          2.240810
      8      8  Bi       0  -2.423483          0.112912         -0.394699
      9      9  Bi       0   1.986466          1.438365         -0.710839
 ---------------------------------------------------------------------------------------------------
                         Z-Matrix orientation:                         
 ---------------------------------------------------------------------
 Center     Atomic      Atomic             Coordinates (Angstroms)
 Number     Number       Type             X           Y           Z
 ---------------------------------------------------------------------
      1         50           0       -0.656771    2.692541    0.029569
      2         50           0       -0.760538   -1.642707    1.849063
      3         83           0        1.979080   -1.339141    0.532757
      4         32           0       -0.323115    0.770372   -2.364789
      5         32           0        1.101556    1.006103    2.071643
      6         83           0       -0.366235   -1.940025   -1.309832
      7         32           0       -1.613698    1.064870    2.240810
      8         83           0       -2.423483    0.112912   -0.394699
      9         83           0        1.986466    1.438365   -0.710839
 ---------------------------------------------------------------------
                    Distance matrix (angstroms):
                    1          2          3          4          5
     1  Sn   0.000000
     2  Sn   4.702733   0.000000
     3  Bi   4.843074   3.054557   0.000000
     4  Ge   3.088529   4.875535   4.259803   0.000000
     5  Ge   3.178970   3.245478   2.939113   4.665532   0.000000
     6  Bi   4.831053   3.197263   3.042482   2.908788   4.718946
     7  Ge   2.907681   2.865715   4.648093   4.792064   2.721153
     8  Bi   3.155275   3.298796   4.727705   2.953820   4.393920
     9  Bi   3.017924   4.857173   3.043210   2.918207   2.951630
                    6          7          8          9
     6  Bi   0.000000
     7  Ge   4.815871   0.000000
     8  Bi   3.047013   2.916828   0.000000
     9  Bi   4.160230   4.670429   4.615671   0.000000
 Stoichiometry    Bi4Ge3Sn2
 Framework group  C1[X(Bi4Ge3Sn2)]
 Deg. of freedom    21
 Full point group                 C1      NOp   1
 Largest Abelian subgroup         C1      NOp   1
 Largest concise Abelian subgroup C1      NOp   1
                         Standard orientation:                         
 ---------------------------------------------------------------------
 Center     Atomic      Atomic             Coordinates (Angstroms)
 Number     Number       Type             X           Y           Z
 ---------------------------------------------------------------------
      1         50           0       -0.656777    2.692540    0.029569
      2         50           0       -0.760534   -1.642709    1.849063
      3         83           0        1.979083   -1.339137    0.532757
      4         32           0       -0.323117    0.770371   -2.364789
      5         32           0        1.101554    1.006106    2.071643
      6         83           0       -0.366231   -1.940026   -1.309832
      7         32           0       -1.613700    1.064867    2.240810
      8         83           0       -2.423483    0.112907   -0.394699
      9         83           0        1.986463    1.438369   -0.710839
 ---------------------------------------------------------------------
 Rotational constants (GHZ):      0.1004509      0.0941458      0.0804903
 Leave Link  202 at Tue Mar  6 11:56:57 2018, MaxMem=   536870912 cpu:         0.0
 (Enter /share/apps//mg09/l301.exe)
 Standard basis: def2TZVP (5D, 7F)
 Ernie: Thresh=  0.10000D-02 Tol=  0.10000D-05 Strict=F.
 There are   519 symmetry adapted cartesian basis functions of A   symmetry.
 There are   444 symmetry adapted basis functions of A   symmetry.
   444 basis functions,   963 primitive gaussians,   519 cartesian basis functions
   116 alpha electrons      116 beta electrons
       nuclear repulsion energy      3532.8400925406 Hartrees.
 IExCor= 1009 DFT=T Ex+Corr=PBE1PBE ExCW=0 ScaHFX=  0.250000
 ScaDFX=  0.750000  0.750000  1.000000  1.000000 ScalE2=  1.000000  1.000000
 IRadAn=      0 IRanWt=     -1 IRanGd=            0 ICorTp=0 IEmpDi=  4
 NAtoms=    9 NActive=    9 NUniq=    9 SFac= 1.00D+00 NAtFMM=   60 NAOKFM=F Big=F
 Integral buffers will be    131072 words long.
 Raffenetti 2 integral format.
 Two-electron integral symmetry is turned on.
 Leave Link  301 at Tue Mar  6 11:57:11 2018, MaxMem=   536870912 cpu:         0.4
 (Enter /share/apps//mg09/l302.exe)
 NPDir=0 NMtPBC=     1 NCelOv=     1 NCel=       1 NClECP=     1 NCelD=      1
         NCelK=      1 NCelE2=     1 NClLst=     1 CellRange=     0.0.
 One-electron integrals computed using PRISM.
   1 Symmetry operations used in ECPInt.
 ECPInt:  NShTT=   10440 NPrTT=   41973 LenC2=    9671 LenP2D=   27480.
 LDataN:  DoStor=T MaxTD1= 8 Len=  415
 NBasis=   444 RedAO= T EigKep=  1.57D-03  NBF=   444
 NBsUse=   444 1.00D-06 EigRej= -1.00D+00 NBFU=   444
 Precomputing XC quadrature grid using
 IXCGrd= 4 IRadAn=           0 IRanWt=          -1 IRanGd=           0 AccXCQ= 0.00D+00.
 Defaulting to unpruned grid for atomic number  50.
 Defaulting to unpruned grid for atomic number  83.
 Defaulting to unpruned grid for atomic number  83.
 Generated NRdTot=       0 NPtTot=           0 NUsed=           0 NTot=          32
 NSgBfM=   499   499   499   500   500 MxSgAt=     9 MxSgA2=     9.
 Leave Link  302 at Tue Mar  6 11:57:31 2018, MaxMem=   536870912 cpu:        38.5
 (Enter /share/apps//mg09/l303.exe)
 DipDrv:  MaxL=1.
 Leave Link  303 at Tue Mar  6 11:57:46 2018, MaxMem=   536870912 cpu:         0.3
 (Enter /share/apps//mg09/l401.exe)
 ExpMin= 4.62D-02 ExpMax= 4.66D+05 ExpMxC= 4.50D+03 IAcc=2 IRadAn=         4 AccDes= 0.00D+00
 Harris functional with IExCor= 1009 and IRadAn=       4 diagonalized for initial guess.
 HarFok:  IExCor= 1009 AccDes= 0.00D+00 IRadAn=         4 IDoV= 1 UseB2=F ITyADJ=14
 ICtDFT=  3500011 ScaDFX=  1.000000  1.000000  1.000000  1.000000
 Defaulting to unpruned grid for atomic number  50.
 Defaulting to unpruned grid for atomic number  50.
 Defaulting to unpruned grid for atomic number  50.
 Defaulting to unpruned grid for atomic number  50.
 FoFCou: FMM=F IPFlag=           0 FMFlag=      100000 FMFlg1=           0
         NFxFlg=           0 DoJE=T BraDBF=F KetDBF=T FulRan=T
         wScrn=  0.000000 ICntrl=     500 IOpCl=  0 I1Cent=   200000004 NGrid=           0
         NMat0=    1 NMatS0=      1 NMatT0=    0 NMatD0=    1 NMtDS0=    0 NMtDT0=    0
 Petite list used in FoFCou.
 Harris En= -7518.61063808130    
 JPrj=0 DoOrth=F DoCkMO=F.
 Leave Link  401 at Tue Mar  6 11:57:58 2018, MaxMem=   536870912 cpu:        16.6
 (Enter /share/apps//mg09/l502.exe)
 Closed shell SCF:
 Using DIIS extrapolation, IDIIS=  1040.
 Integral symmetry usage will be decided dynamically.
 IVT=     1410107 IEndB=     1410107 NGot=   536870912 MDV=   536322046
 LenX=   536322046 LenY=   536052166
 Requested convergence on RMS density matrix=1.00D-08 within 768 cycles.
 Requested convergence on MAX density matrix=1.00D-06.
 Requested convergence on             energy=1.00D-06.
 No special actions if energy rises.
 Fock matrices will be formed incrementally for  20 cycles.

 Cycle   1  Pass 1  IDiag  1:
 FoFJK:  IHMeth= 1 ICntrl=       0 DoSepK=F KAlg= 0 I1Cent=   0 FoldK=F
 IRaf= 880000000 NMat=   1 IRICut=       1 DoRegI=T DoRafI=F ISym2E= 0.
 FoFCou: FMM=F IPFlag=           0 FMFlag=      100000 FMFlg1=           0
         NFxFlg=           0 DoJE=F BraDBF=F KetDBF=F FulRan=T
         wScrn=  0.000000 ICntrl=       0 IOpCl=  0 I1Cent=           0 NGrid=           0
         NMat0=    1 NMatS0=      1 NMatT0=    0 NMatD0=    1 NMtDS0=    0 NMtDT0=    0
 Symmetry not used in FoFCou.
 Defaulting to unpruned grid for atomic number  50.
 Defaulting to unpruned grid for atomic number  50.
 Defaulting to unpruned grid for atomic number  50.
 Defaulting to unpruned grid for atomic number  50.
 E= -7517.24388681609    
 DIIS: error= 3.08D-02 at cycle   1 NSaved=   1.
 NSaved= 1 IEnMin= 1 EnMin= -7517.24388681609     IErMin= 1 ErrMin= 3.08D-02
 ErrMax= 3.08D-02  0.00D+00 EMaxC= 1.00D-01 BMatC= 1.46D+00 BMatP= 1.46D+00
 IDIUse=3 WtCom= 6.92D-01 WtEn= 3.08D-01
 Coeff-Com:  0.100D+01
 Coeff-En:   0.100D+01
 Coeff:      0.100D+01
 Gap=     0.137 Goal=   None    Shift=    0.000
 GapD=    0.137 DampG=1.000 DampE=0.500 DampFc=0.5000 IDamp=-1.
 Damping current iteration by 5.00D-01
 RMSDP=5.42D-03 MaxDP=2.36D-01              OVMax= 7.49D-01

 Cycle   2  Pass 1  IDiag  1:
 RMSU=  2.71D-03    CP:  1.01D+00
 E= -7517.07418787631     Delta-E=        0.169698939790 Rises=F Damp=T
 DIIS: error= 1.19D-02 at cycle   2 NSaved=   2.
 NSaved= 2 IEnMin= 1 EnMin= -7517.24388681609     IErMin= 2 ErrMin= 1.19D-02
 ErrMax= 1.19D-02  0.00D+00 EMaxC= 1.00D-01 BMatC= 2.90D-01 BMatP= 1.46D+00
 IDIUse=3 WtCom= 8.81D-01 WtEn= 1.19D-01
 Coeff-Com:  0.154D+00 0.846D+00
 Coeff-En:   0.593D+00 0.407D+00
 Coeff:      0.206D+00 0.794D+00
 Gap=     0.096 Goal=   None    Shift=    0.000
 RMSDP=4.07D-03 MaxDP=1.80D-01 DE= 1.70D-01 OVMax= 6.85D-01

 Cycle   3  Pass 1  IDiag  1:
 RMSU=  3.29D-03    CP:  1.01D+00  1.19D-01
 E= -7515.35475408600     Delta-E=        1.719433790307 Rises=F Damp=F
 DIIS: error= 3.66D-02 at cycle   3 NSaved=   3.
 NSaved= 3 IEnMin= 1 EnMin= -7517.24388681609     IErMin= 2 ErrMin= 1.19D-02
 ErrMax= 3.66D-02  0.00D+00 EMaxC= 1.00D-01 BMatC= 1.88D+00 BMatP= 2.90D-01
 IDIUse=2 WtCom= 0.00D+00 WtEn= 1.00D+00
 EnCoef did    11 forward-backward iterations
 Coeff-En:   0.519D+00 0.437D+00 0.446D-01
 Coeff:      0.519D+00 0.437D+00 0.446D-01
 Gap=     0.152 Goal=   None    Shift=    0.000
 RMSDP=3.39D-03 MaxDP=1.45D-01 DE= 1.72D+00 OVMax= 4.32D-01

 Cycle   4  Pass 1  IDiag  1:
 RMSU=  1.50D-03    CP:  1.01D+00  8.25D-01  2.81D-01
 E= -7517.70256247286     Delta-E=       -2.347808386859 Rises=F Damp=F
 DIIS: error= 1.00D-02 at cycle   4 NSaved=   4.
 NSaved= 4 IEnMin= 4 EnMin= -7517.70256247286     IErMin= 4 ErrMin= 1.00D-02
 ErrMax= 1.00D-02  0.00D+00 EMaxC= 1.00D-01 BMatC= 2.70D-01 BMatP= 2.90D-01
 IDIUse=3 WtCom= 9.00D-01 WtEn= 1.00D-01
 Coeff-Com:  0.312D+00-0.215D-01-0.600D-01 0.770D+00
 Coeff-En:   0.110D+00 0.000D+00 0.000D+00 0.890D+00
 Coeff:      0.292D+00-0.194D-01-0.540D-01 0.782D+00
 Gap=     0.121 Goal=   None    Shift=    0.000
 RMSDP=1.31D-03 MaxDP=6.45D-02 DE=-2.35D+00 OVMax= 1.07D-01

 Cycle   5  Pass 1  IDiag  1:
 RMSU=  6.97D-04    CP:  1.00D+00  6.21D-01  4.12D-02  6.42D-01
 E= -7517.76354852429     Delta-E=       -0.060986051438 Rises=F Damp=F
 DIIS: error= 5.46D-03 at cycle   5 NSaved=   5.
 NSaved= 5 IEnMin= 5 EnMin= -7517.76354852429     IErMin= 5 ErrMin= 5.46D-03
 ErrMax= 5.46D-03  0.00D+00 EMaxC= 1.00D-01 BMatC= 5.99D-02 BMatP= 2.70D-01
 IDIUse=3 WtCom= 9.45D-01 WtEn= 5.46D-02
 Coeff-Com:  0.136D+00-0.646D-01-0.665D-02 0.441D+00 0.494D+00
 Coeff-En:   0.000D+00 0.000D+00 0.000D+00 0.317D+00 0.683D+00
 Coeff:      0.129D+00-0.611D-01-0.629D-02 0.434D+00 0.505D+00
 Gap=     0.128 Goal=   None    Shift=    0.000
 RMSDP=7.19D-04 MaxDP=3.64D-02 DE=-6.10D-02 OVMax= 7.05D-02

 Cycle   6  Pass 1  IDiag  1:
 RMSU=  3.66D-04    CP:  1.00D+00  5.83D-01  1.44D-01  7.49D-01  3.30D-01
 E= -7517.81100286564     Delta-E=       -0.047454341344 Rises=F Damp=F
 DIIS: error= 3.10D-03 at cycle   6 NSaved=   6.
 NSaved= 6 IEnMin= 6 EnMin= -7517.81100286564     IErMin= 6 ErrMin= 3.10D-03
 ErrMax= 3.10D-03  0.00D+00 EMaxC= 1.00D-01 BMatC= 9.99D-03 BMatP= 5.99D-02
 IDIUse=3 WtCom= 9.69D-01 WtEn= 3.10D-02
 Coeff-Com:  0.390D-01-0.555D-01 0.553D-03 0.179D+00 0.344D+00 0.493D+00
 Coeff-En:   0.000D+00 0.000D+00 0.000D+00 0.000D+00 0.157D+00 0.843D+00
 Coeff:      0.377D-01-0.538D-01 0.536D-03 0.173D+00 0.338D+00 0.504D+00
 Gap=     0.124 Goal=   None    Shift=    0.000
 RMSDP=2.61D-04 MaxDP=1.25D-02 DE=-4.75D-02 OVMax= 2.52D-02

 Cycle   7  Pass 1  IDiag  1:
 RMSU=  1.15D-04    CP:  1.00D+00  5.91D-01  1.19D-01  7.25D-01  5.18D-01
                    CP:  5.56D-01
 E= -7517.81753786552     Delta-E=       -0.006534999882 Rises=F Damp=F
 DIIS: error= 8.18D-04 at cycle   7 NSaved=   7.
 NSaved= 7 IEnMin= 7 EnMin= -7517.81753786552     IErMin= 7 ErrMin= 8.18D-04
 ErrMax= 8.18D-04  0.00D+00 EMaxC= 1.00D-01 BMatC= 1.04D-03 BMatP= 9.99D-03
 IDIUse=3 WtCom= 9.92D-01 WtEn= 8.18D-03
 Coeff-Com:  0.201D-01-0.361D-01 0.881D-03 0.893D-01 0.174D+00 0.323D+00
 Coeff-Com:  0.428D+00
 Coeff-En:   0.000D+00 0.000D+00 0.000D+00 0.000D+00 0.000D+00 0.154D+00
 Coeff-En:   0.846D+00
 Coeff:      0.199D-01-0.358D-01 0.874D-03 0.885D-01 0.173D+00 0.322D+00
 Coeff:      0.432D+00
 Gap=     0.125 Goal=   None    Shift=    0.000
 RMSDP=1.15D-04 MaxDP=5.93D-03 DE=-6.53D-03 OVMax= 1.32D-02

 Cycle   8  Pass 1  IDiag  1:
 RMSU=  6.13D-05    CP:  1.00D+00  5.89D-01  1.27D-01  7.32D-01  5.03D-01
                    CP:  6.23D-01  2.27D-01
 E= -7517.81835207162     Delta-E=       -0.000814206098 Rises=F Damp=F
 DIIS: error= 5.62D-04 at cycle   8 NSaved=   8.
 NSaved= 8 IEnMin= 8 EnMin= -7517.81835207162     IErMin= 8 ErrMin= 5.62D-04
 ErrMax= 5.62D-04  0.00D+00 EMaxC= 1.00D-01 BMatC= 3.72D-04 BMatP= 1.04D-03
 IDIUse=3 WtCom= 9.94D-01 WtEn= 5.62D-03
 Coeff-Com:  0.103D-01-0.202D-01 0.167D-02 0.417D-01 0.772D-01 0.177D+00
 Coeff-Com:  0.361D+00 0.351D+00
 Coeff-En:   0.000D+00 0.000D+00 0.000D+00 0.000D+00 0.000D+00 0.000D+00
 Coeff-En:   0.287D+00 0.713D+00
 Coeff:      0.103D-01-0.201D-01 0.166D-02 0.414D-01 0.768D-01 0.176D+00
 Coeff:      0.361D+00 0.353D+00
 Gap=     0.124 Goal=   None    Shift=    0.000
 RMSDP=5.30D-05 MaxDP=2.07D-03 DE=-8.14D-04 OVMax= 5.85D-03

 Cycle   9  Pass 1  IDiag  1:
 RMSU=  2.23D-05    CP:  1.00D+00  5.88D-01  1.31D-01  7.34D-01  5.01D-01
                    CP:  6.07D-01  5.14D-01  4.74D-01
 E= -7517.81882079467     Delta-E=       -0.000468723048 Rises=F Damp=F
 DIIS: error= 8.04D-05 at cycle   9 NSaved=   9.
 NSaved= 9 IEnMin= 9 EnMin= -7517.81882079467     IErMin= 9 ErrMin= 8.04D-05
 ErrMax= 8.04D-05  0.00D+00 EMaxC= 1.00D-01 BMatC= 1.51D-05 BMatP= 3.72D-04
 IDIUse=1 WtCom= 1.00D+00 WtEn= 0.00D+00
 Coeff-Com:  0.311D-02-0.639D-02 0.422D-03 0.818D-02 0.700D-02 0.346D-01
 Coeff-Com:  0.108D+00 0.183D+00 0.663D+00
 Coeff:      0.311D-02-0.639D-02 0.422D-03 0.818D-02 0.700D-02 0.346D-01
 Coeff:      0.108D+00 0.183D+00 0.663D+00
 Gap=     0.124 Goal=   None    Shift=    0.000
 RMSDP=1.42D-05 MaxDP=8.76D-04 DE=-4.69D-04 OVMax= 1.59D-03

 Cycle  10  Pass 1  IDiag  1:
 RMSU=  9.35D-06    CP:  1.00D+00  5.86D-01  1.31D-01  7.34D-01  4.95D-01
                    CP:  6.14D-01  5.10D-01  5.52D-01  7.09D-01
 E= -7517.81883556693     Delta-E=       -0.000014772260 Rises=F Damp=F
 DIIS: error= 3.48D-05 at cycle  10 NSaved=  10.
 NSaved=10 IEnMin=10 EnMin= -7517.81883556693     IErMin=10 ErrMin= 3.48D-05
 ErrMax= 3.48D-05  0.00D+00 EMaxC= 1.00D-01 BMatC= 3.85D-06 BMatP= 1.51D-05
 IDIUse=1 WtCom= 1.00D+00 WtEn= 0.00D+00
 Coeff-Com:  0.358D-03-0.853D-03 0.262D-03-0.147D-02-0.767D-02-0.573D-02
 Coeff-Com:  0.100D-01 0.574D-01 0.428D+00 0.519D+00
 Coeff:      0.358D-03-0.853D-03 0.262D-03-0.147D-02-0.767D-02-0.573D-02
 Coeff:      0.100D-01 0.574D-01 0.428D+00 0.519D+00
 Gap=     0.124 Goal=   None    Shift=    0.000
 RMSDP=6.01D-06 MaxDP=3.25D-04 DE=-1.48D-05 OVMax= 6.98D-04

 Cycle  11  Pass 1  IDiag  1:
 RMSU=  3.28D-06    CP:  1.00D+00  5.86D-01  1.32D-01  7.33D-01  4.96D-01
                    CP:  6.15D-01  5.07D-01  5.52D-01  8.44D-01  6.22D-01
 E= -7517.81883908970     Delta-E=       -0.000003522768 Rises=F Damp=F
 DIIS: error= 1.99D-05 at cycle  11 NSaved=  11.
 NSaved=11 IEnMin=11 EnMin= -7517.81883908970     IErMin=11 ErrMin= 1.99D-05
 ErrMax= 1.99D-05  0.00D+00 EMaxC= 1.00D-01 BMatC= 6.01D-07 BMatP= 3.85D-06
 IDIUse=1 WtCom= 1.00D+00 WtEn= 0.00D+00
 Coeff-Com:  0.650D-04-0.203D-03 0.116D-03-0.138D-02-0.537D-02-0.641D-02
 Coeff-Com: -0.179D-02 0.231D-01 0.232D+00 0.354D+00 0.405D+00
 Coeff:      0.650D-04-0.203D-03 0.116D-03-0.138D-02-0.537D-02-0.641D-02
 Coeff:     -0.179D-02 0.231D-01 0.232D+00 0.354D+00 0.405D+00
 Gap=     0.124 Goal=   None    Shift=    0.000
 RMSDP=2.91D-06 MaxDP=1.28D-04 DE=-3.52D-06 OVMax= 3.27D-04

 Cycle  12  Pass 1  IDiag  1:
 RMSU=  1.90D-06    CP:  1.00D+00  5.86D-01  1.32D-01  7.33D-01  4.96D-01
                    CP:  6.15D-01  5.07D-01  5.50D-01  8.54D-01  6.56D-01
                    CP:  3.43D-01
 E= -7517.81883952049     Delta-E=       -0.000000430799 Rises=F Damp=F
 DIIS: error= 1.30D-05 at cycle  12 NSaved=  12.
 NSaved=12 IEnMin=12 EnMin= -7517.81883952049     IErMin=12 ErrMin= 1.30D-05
 ErrMax= 1.30D-05  0.00D+00 EMaxC= 1.00D-01 BMatC= 1.89D-07 BMatP= 6.01D-07
 IDIUse=1 WtCom= 1.00D+00 WtEn= 0.00D+00
 Coeff-Com: -0.648D-05-0.954D-05 0.524D-04-0.685D-03-0.242D-02-0.364D-02
 Coeff-Com: -0.312D-02 0.601D-02 0.892D-01 0.170D+00 0.342D+00 0.403D+00
 Coeff:     -0.648D-05-0.954D-05 0.524D-04-0.685D-03-0.242D-02-0.364D-02
 Coeff:     -0.312D-02 0.601D-02 0.892D-01 0.170D+00 0.342D+00 0.403D+00
 Gap=     0.124 Goal=   None    Shift=    0.000
 RMSDP=1.34D-06 MaxDP=6.34D-05 DE=-4.31D-07 OVMax= 1.48D-04

 Cycle  13  Pass 1  IDiag  1:
 RMSU=  5.25D-07    CP:  1.00D+00  5.86D-01  1.32D-01  7.33D-01  4.96D-01
                    CP:  6.15D-01  5.07D-01  5.52D-01  8.51D-01  6.50D-01
                    CP:  5.85D-01  5.14D-01
 E= -7517.81883977414     Delta-E=       -0.000000253644 Rises=F Damp=F
 DIIS: error= 2.21D-06 at cycle  13 NSaved=  13.
 NSaved=13 IEnMin=13 EnMin= -7517.81883977414     IErMin=13 ErrMin= 2.21D-06
 ErrMax= 2.21D-06  0.00D+00 EMaxC= 1.00D-01 BMatC= 6.91D-09 BMatP= 1.89D-07
 IDIUse=1 WtCom= 1.00D+00 WtEn= 0.00D+00
 Coeff-Com: -0.164D-05 0.905D-05 0.523D-05-0.980D-04-0.393D-03-0.873D-03
 Coeff-Com: -0.139D-02-0.701D-03 0.477D-02 0.276D-01 0.906D-01 0.198D+00
 Coeff-Com:  0.682D+00
 Coeff:     -0.164D-05 0.905D-05 0.523D-05-0.980D-04-0.393D-03-0.873D-03
 Coeff:     -0.139D-02-0.701D-03 0.477D-02 0.276D-01 0.906D-01 0.198D+00
 Coeff:      0.682D+00
 Gap=     0.124 Goal=   None    Shift=    0.000
 RMSDP=2.97D-07 MaxDP=1.32D-05 DE=-2.54D-07 OVMax= 3.55D-05

 Cycle  14  Pass 1  IDiag  1:
 RMSU=  1.72D-07    CP:  1.00D+00  5.86D-01  1.32D-01  7.33D-01  4.96D-01
                    CP:  6.15D-01  5.07D-01  5.52D-01  8.50D-01  6.64D-01
                    CP:  5.71D-01  5.89D-01  8.44D-01
 E= -7517.81883978372     Delta-E=       -0.000000009579 Rises=F Damp=F
 DIIS: error= 8.06D-07 at cycle  14 NSaved=  14.
 NSaved=14 IEnMin=14 EnMin= -7517.81883978372     IErMin=14 ErrMin= 8.06D-07
 ErrMax= 8.06D-07  0.00D+00 EMaxC= 1.00D-01 BMatC= 9.06D-10 BMatP= 6.91D-09
 IDIUse=1 WtCom= 1.00D+00 WtEn= 0.00D+00
 Coeff-Com: -0.806D-06 0.703D-05 0.110D-05-0.148D-06-0.177D-04-0.173D-03
 Coeff-Com: -0.576D-03-0.947D-03-0.464D-02 0.377D-03 0.239D-01 0.773D-01
 Coeff-Com:  0.386D+00 0.519D+00
 Coeff:     -0.806D-06 0.703D-05 0.110D-05-0.148D-06-0.177D-04-0.173D-03
 Coeff:     -0.576D-03-0.947D-03-0.464D-02 0.377D-03 0.239D-01 0.773D-01
 Coeff:      0.386D+00 0.519D+00
 Gap=     0.124 Goal=   None    Shift=    0.000
 RMSDP=9.43D-08 MaxDP=6.71D-06 DE=-9.58D-09 OVMax= 8.90D-06

 Cycle  15  Pass 1  IDiag  1:
 RMSU=  5.71D-08    CP:  1.00D+00  5.86D-01  1.32D-01  7.33D-01  4.96D-01
                    CP:  6.15D-01  5.07D-01  5.52D-01  8.51D-01  6.62D-01
                    CP:  5.76D-01  5.98D-01  9.16D-01  7.32D-01
 E= -7517.81883978431     Delta-E=       -0.000000000593 Rises=F Damp=F
 DIIS: error= 2.32D-07 at cycle  15 NSaved=  15.
 NSaved=15 IEnMin=15 EnMin= -7517.81883978431     IErMin=15 ErrMin= 2.32D-07
 ErrMax= 2.32D-07  0.00D+00 EMaxC= 1.00D-01 BMatC= 8.52D-11 BMatP= 9.06D-10
 IDIUse=1 WtCom= 1.00D+00 WtEn= 0.00D+00
 Coeff-Com: -0.712D-06 0.351D-05-0.503D-06 0.110D-04 0.388D-04 0.341D-04
 Coeff-Com: -0.118D-03-0.436D-03-0.296D-02-0.424D-02 0.108D-03 0.122D-01
 Coeff-Com:  0.113D+00 0.272D+00 0.611D+00
 Coeff:     -0.712D-06 0.351D-05-0.503D-06 0.110D-04 0.388D-04 0.341D-04
 Coeff:     -0.118D-03-0.436D-03-0.296D-02-0.424D-02 0.108D-03 0.122D-01
 Coeff:      0.113D+00 0.272D+00 0.611D+00
 Gap=     0.124 Goal=   None    Shift=    0.000
 RMSDP=3.52D-08 MaxDP=2.15D-06 DE=-5.93D-10 OVMax= 4.15D-06

 Cycle  16  Pass 1  IDiag  1:
 RMSU=  1.96D-08    CP:  1.00D+00  5.86D-01  1.32D-01  7.33D-01  4.96D-01
                    CP:  6.15D-01  5.07D-01  5.52D-01  8.51D-01  6.62D-01
                    CP:  5.80D-01  6.01D-01  9.26D-01  7.98D-01  8.03D-01
 E= -7517.81883978435     Delta-E=       -0.000000000044 Rises=F Damp=F
 DIIS: error= 5.49D-08 at cycle  16 NSaved=  16.
 NSaved=16 IEnMin=16 EnMin= -7517.81883978435     IErMin=16 ErrMin= 5.49D-08
 ErrMax= 5.49D-08  0.00D+00 EMaxC= 1.00D-01 BMatC= 6.29D-12 BMatP= 8.52D-11
 IDIUse=1 WtCom= 1.00D+00 WtEn= 0.00D+00
 Coeff-Com: -0.250D-06 0.830D-06-0.321D-06 0.573D-05 0.221D-04 0.413D-04
 Coeff-Com:  0.190D-04-0.768D-04-0.790D-03-0.157D-02-0.227D-02-0.184D-02
 Coeff-Com:  0.659D-02 0.560D-01 0.251D+00 0.693D+00
 Coeff:     -0.250D-06 0.830D-06-0.321D-06 0.573D-05 0.221D-04 0.413D-04
 Coeff:      0.190D-04-0.768D-04-0.790D-03-0.157D-02-0.227D-02-0.184D-02
 Coeff:      0.659D-02 0.560D-01 0.251D+00 0.693D+00
 Gap=     0.124 Goal=   None    Shift=    0.000
 RMSDP=1.07D-08 MaxDP=6.23D-07 DE=-4.37D-11 OVMax= 1.48D-06

 Cycle  17  Pass 1  IDiag  1:
 RMSU=  5.82D-09    CP:  1.00D+00  5.86D-01  1.32D-01  7.33D-01  4.96D-01
                    CP:  6.15D-01  5.07D-01  5.52D-01  8.51D-01  6.62D-01
                    CP:  5.80D-01  6.02D-01  9.32D-01  8.08D-01  8.68D-01
                    CP:  9.09D-01
 E= -7517.81883978430     Delta-E=        0.000000000056 Rises=F Damp=F
 DIIS: error= 1.59D-08 at cycle  17 NSaved=  17.
 NSaved=17 IEnMin=16 EnMin= -7517.81883978435     IErMin=17 ErrMin= 1.59D-08
 ErrMax= 1.59D-08  0.00D+00 EMaxC= 1.00D-01 BMatC= 6.31D-13 BMatP= 6.29D-12
 IDIUse=1 WtCom= 1.00D+00 WtEn= 0.00D+00
 Coeff-Com: -0.140D-06 0.256D-06-0.109D-06 0.157D-05 0.679D-05 0.160D-04
 Coeff-Com:  0.188D-04 0.586D-05-0.129D-03-0.385D-03-0.112D-02-0.184D-02
 Coeff-Com: -0.583D-02 0.342D-02 0.670D-01 0.321D+00 0.618D+00
 Coeff:     -0.140D-06 0.256D-06-0.109D-06 0.157D-05 0.679D-05 0.160D-04
 Coeff:      0.188D-04 0.586D-05-0.129D-03-0.385D-03-0.112D-02-0.184D-02
 Coeff:     -0.583D-02 0.342D-02 0.670D-01 0.321D+00 0.618D+00
 Gap=     0.124 Goal=   None    Shift=    0.000
 RMSDP=3.89D-09 MaxDP=1.81D-07 DE= 5.64D-11 OVMax= 6.77D-07

 SCF Done:  E(RPBE1PBE) =  -7517.81883978     A.U. after   17 cycles
            NFock= 17  Conv=0.39D-08     -V/T= 2.1285
 KE= 6.661965176890D+03 PE=-2.465714503553D+04 EE= 6.944520926313D+03
 Leave Link  502 at Tue Mar  6 12:23:12 2018, MaxMem=   536870912 cpu:      5985.6
 (Enter /share/apps//mg09/l601.exe)
 Copying SCF densities to generalized density rwf, IOpCl= 0 IROHF=0.

 **********************************************************************

            Population analysis using the SCF density.

 **********************************************************************

 Orbital symmetries:
       Occupied  (A) (A) (A) (A) (A) (A) (A) (A) (A) (A) (A) (A)
                 (A) (A) (A) (A) (A) (A) (A) (A) (A) (A) (A) (A)
                 (A) (A) (A) (A) (A) (A) (A) (A) (A) (A) (A) (A)
                 (A) (A) (A) (A) (A) (A) (A) (A) (A) (A) (A) (A)
                 (A) (A) (A) (A) (A) (A) (A) (A) (A) (A) (A) (A)
                 (A) (A) (A) (A) (A) (A) (A) (A) (A) (A) (A) (A)
                 (A) (A) (A) (A) (A) (A) (A) (A) (A) (A) (A) (A)
                 (A) (A) (A) (A) (A) (A) (A) (A) (A) (A) (A) (A)
                 (A) (A) (A) (A) (A) (A) (A) (A) (A) (A) (A) (A)
                 (A) (A) (A) (A) (A) (A) (A) (A)
       Virtual   (A) (A) (A) (A) (A) (A) (A) (A) (A) (A) (A) (A)
                 (A) (A) (A) (A) (A) (A) (A) (A) (A) (A) (A) (A)
                 (A) (A) (A) (A) (A) (A) (A) (A) (A) (A) (A) (A)
                 (A) (A) (A) (A) (A) (A) (A) (A) (A) (A) (A) (A)
                 (A) (A) (A) (A) (A) (A) (A) (A) (A) (A) (A) (A)
                 (A) (A) (A) (A) (A) (A) (A) (A) (A) (A) (A) (A)
                 (A) (A) (A) (A) (A) (A) (A) (A) (A) (A) (A) (A)
                 (A) (A) (A) (A) (A) (A) (A) (A) (A) (A) (A) (A)
                 (A) (A) (A) (A) (A) (A) (A) (A) (A) (A) (A) (A)
                 (A) (A) (A) (A) (A) (A) (A) (A) (A) (A) (A) (A)
                 (A) (A) (A) (A) (A) (A) (A) (A) (A) (A) (A) (A)
                 (A) (A) (A) (A) (A) (A) (A) (A) (A) (A) (A) (A)
                 (A) (A) (A) (A) (A) (A) (A) (A) (A) (A) (A) (A)
                 (A) (A) (A) (A) (A) (A) (A) (A) (A) (A) (A) (A)
                 (A) (A) (A) (A) (A) (A) (A) (A) (A) (A) (A) (A)
                 (A) (A) (A) (A) (A) (A) (A) (A) (A) (A) (A) (A)
                 (A) (A) (A) (A) (A) (A) (A) (A) (A) (A) (A) (A)
                 (A) (A) (A) (A) (A) (A) (A) (A) (A) (A) (A) (A)
                 (A) (A) (A) (A) (A) (A) (A) (A) (A) (A) (A) (A)
                 (A) (A) (A) (A) (A) (A) (A) (A) (A) (A) (A) (A)
                 (A) (A) (A) (A) (A) (A) (A) (A) (A) (A) (A) (A)
                 (A) (A) (A) (A) (A) (A) (A) (A) (A) (A) (A) (A)
                 (A) (A) (A) (A) (A) (A) (A) (A) (A) (A) (A) (A)
                 (A) (A) (A) (A) (A) (A) (A) (A) (A) (A) (A) (A)
                 (A) (A) (A) (A) (A) (A) (A) (A) (A) (A) (A) (A)
                 (A) (A) (A) (A) (A) (A) (A) (A) (A) (A) (A) (A)
                 (A) (A) (A) (A) (A) (A) (A) (A) (A) (A) (A) (A)
                 (A) (A) (A) (A)
 The electronic state is 1-A.
 Alpha  occ. eigenvalues -- -399.09800-399.09354-399.08852 -49.91353 -49.90933
 Alpha  occ. eigenvalues --  -49.90468 -44.39443 -44.39424 -44.39363 -44.39010
 Alpha  occ. eigenvalues --  -44.38992 -44.38960 -44.38558 -44.38519 -44.38480
 Alpha  occ. eigenvalues --   -6.27849  -6.27432  -6.26980  -6.02117  -6.01921
 Alpha  occ. eigenvalues --   -6.01718  -6.01132  -5.14057  -5.13624  -4.43310
 Alpha  occ. eigenvalues --   -4.43252  -4.43043  -4.42865  -4.42799  -4.42684
 Alpha  occ. eigenvalues --   -4.42469  -4.42341  -4.42203  -3.74422  -3.74231
 Alpha  occ. eigenvalues --   -3.74199  -3.74114  -3.74030  -3.74015  -3.73946
 Alpha  occ. eigenvalues --   -3.73911  -3.73631  -3.73465  -3.73230  -3.73110
 Alpha  occ. eigenvalues --   -3.47322  -3.47199  -3.46996  -3.46866  -3.46737
 Alpha  occ. eigenvalues --   -3.46619  -1.22791  -1.22773  -1.22595  -1.22574
 Alpha  occ. eigenvalues --   -1.22523  -1.22326  -1.22312  -1.22219  -1.22153
 Alpha  occ. eigenvalues --   -1.22129  -1.21928  -1.21889  -1.21769  -1.21683
 Alpha  occ. eigenvalues --   -1.21637  -1.08513  -1.08242  -1.08094  -1.08000
 Alpha  occ. eigenvalues --   -1.07891  -1.07833  -1.07805  -1.07757  -1.07707
 Alpha  occ. eigenvalues --   -1.07621  -1.07456  -1.07340  -1.07263  -1.07151
 Alpha  occ. eigenvalues --   -1.07117  -1.07042  -1.06937  -1.06778  -1.06728
 Alpha  occ. eigenvalues --   -1.06662  -1.03508  -1.03490  -1.03313  -1.03239
 Alpha  occ. eigenvalues --   -1.03191  -1.03035  -1.03027  -1.02927  -1.02837
 Alpha  occ. eigenvalues --   -1.02786  -0.66659  -0.62157  -0.59455  -0.56339
 Alpha  occ. eigenvalues --   -0.51626  -0.46459  -0.43795  -0.42980  -0.40244
 Alpha  occ. eigenvalues --   -0.28959  -0.27780  -0.26643  -0.25538  -0.24675
 Alpha  occ. eigenvalues --   -0.24149  -0.23078  -0.22848  -0.22334  -0.21027
 Alpha  occ. eigenvalues --   -0.20255
 Alpha virt. eigenvalues --   -0.07841  -0.07269  -0.07053  -0.06334  -0.06022
 Alpha virt. eigenvalues --   -0.05808  -0.04865  -0.04516  -0.04096  -0.03911
 Alpha virt. eigenvalues --   -0.03116  -0.02105  -0.01871   0.03602   0.05191
 Alpha virt. eigenvalues --    0.05324   0.06449   0.07977   0.08736   0.08931
 Alpha virt. eigenvalues --    0.09136   0.09347   0.09770   0.10211   0.10553
 Alpha virt. eigenvalues --    0.10764   0.11741   0.12029   0.12437   0.12782
 Alpha virt. eigenvalues --    0.13759   0.15201   0.16054   0.16533   0.17099
 Alpha virt. eigenvalues --    0.18319   0.19362   0.19671   0.20194   0.20679
 Alpha virt. eigenvalues --    0.20801   0.21329   0.22154   0.23458   0.24342
 Alpha virt. eigenvalues --    0.24524   0.25520   0.26259   0.28226   0.29243
 Alpha virt. eigenvalues --    0.29617   0.30142   0.30453   0.30647   0.31418
 Alpha virt. eigenvalues --    0.31675   0.32343   0.32618   0.33076   0.34083
 Alpha virt. eigenvalues --    0.34276   0.34732   0.35811   0.36425   0.36880
 Alpha virt. eigenvalues --    0.39154   0.40035   0.40500   0.40958   0.41598
 Alpha virt. eigenvalues --    0.42728   0.43447   0.43634   0.44563   0.44688
 Alpha virt. eigenvalues --    0.45906   0.46189   0.46412   0.47077   0.47779
 Alpha virt. eigenvalues --    0.48421   0.49805   0.50028   0.51041   0.51512
 Alpha virt. eigenvalues --    0.52561   0.53927   0.54165   0.55162   0.55335
 Alpha virt. eigenvalues --    0.56798   0.57568   0.58099   0.58537   0.59144
 Alpha virt. eigenvalues --    0.59940   0.60645   0.61538   0.61828   0.62664
 Alpha virt. eigenvalues --    0.63102   0.64078   0.64787   0.65299   0.66027
 Alpha virt. eigenvalues --    0.66520   0.67806   0.68188   0.68628   0.68773
 Alpha virt. eigenvalues --    0.69941   0.70877   0.72086   0.73240   0.73985
 Alpha virt. eigenvalues --    0.75343   0.75875   0.77279   0.77609   0.79064
 Alpha virt. eigenvalues --    0.79696   0.79987   0.81123   0.81617   0.82468
 Alpha virt. eigenvalues --    0.82915   0.83803   0.84495   0.85423   0.86688
 Alpha virt. eigenvalues --    0.86895   0.87289   0.88550   0.89356   0.89809
 Alpha virt. eigenvalues --    0.90715   0.91449   0.92330   0.92812   0.93322
 Alpha virt. eigenvalues --    0.93950   0.95101   0.95300   0.96330   0.97646
 Alpha virt. eigenvalues --    0.98133   0.99217   0.99748   1.00458   1.01458
 Alpha virt. eigenvalues --    1.02667   1.03420   1.05014   1.05638   1.06785
 Alpha virt. eigenvalues --    1.08498   1.09495   1.09847   1.12333   1.12860
 Alpha virt. eigenvalues --    1.13846   1.14624   1.15651   1.16332   1.17106
 Alpha virt. eigenvalues --    1.17348   1.18219   1.18872   1.19766   1.20335
 Alpha virt. eigenvalues --    1.20886   1.21296   1.21639   1.21731   1.21996
 Alpha virt. eigenvalues --    1.22376   1.22590   1.23342   1.23980   1.24144
 Alpha virt. eigenvalues --    1.24945   1.25081   1.25453   1.26510   1.27199
 Alpha virt. eigenvalues --    1.27785   1.28161   1.29614   1.29720   1.30075
 Alpha virt. eigenvalues --    1.30923   1.31578   1.32441   1.33049   1.34024
 Alpha virt. eigenvalues --    1.35605   1.36124   1.37383   1.38593   1.39185
 Alpha virt. eigenvalues --    1.40183   1.40469   1.41770   1.42337   1.44301
 Alpha virt. eigenvalues --    1.44866   1.45091   1.46361   1.47834   1.49251
 Alpha virt. eigenvalues --    1.49697   1.50623   1.50989   1.51843   1.52017
 Alpha virt. eigenvalues --    1.53468   1.54462   1.55714   1.58195   1.58862
 Alpha virt. eigenvalues --    1.63946   1.68818   1.70077   2.03674   2.08722
 Alpha virt. eigenvalues --    2.08949   2.10001   2.11611   2.14702   2.16353
 Alpha virt. eigenvalues --    2.17167   2.18410   2.19336   2.19559   2.19877
 Alpha virt. eigenvalues --    2.21406   2.22047   2.23565   2.24525   2.25695
 Alpha virt. eigenvalues --    2.25964   2.27880   2.28744   2.30313   2.32015
 Alpha virt. eigenvalues --    2.35245   2.35892   2.38415   2.38882   2.39960
 Alpha virt. eigenvalues --    2.41072   2.42058   2.44218   2.45093   2.47137
 Alpha virt. eigenvalues --    2.49255   2.50858   2.51592   2.52850   2.54356
 Alpha virt. eigenvalues --    2.57281   2.59283   2.61186   2.63420   2.64767
 Alpha virt. eigenvalues --    2.69539   2.70736   2.72065   2.74283   2.74993
 Alpha virt. eigenvalues --    2.77719   2.78480   2.79311   2.80011   2.81379
 Alpha virt. eigenvalues --    2.82658   2.85300   2.86872   2.88086   2.94473
 Alpha virt. eigenvalues --    3.19595   3.26820   3.29593   3.36399   3.39201
 Alpha virt. eigenvalues --    3.42112   3.94182   3.97958   3.98612   3.99853
 Alpha virt. eigenvalues --    4.01160   4.03431   4.03955   4.06693   4.17917
 Alpha virt. eigenvalues --    5.30270   5.32314   5.36714  35.36459  35.39919
 Alpha virt. eigenvalues --   35.41389  35.43582  35.45866  35.46855  35.50097
 Alpha virt. eigenvalues --   35.51483  35.53549  35.54532  35.59299  35.62797
 Alpha virt. eigenvalues --   35.86493  35.93245  36.02575  36.06103  36.19081
 Alpha virt. eigenvalues --   36.22812  36.96208  36.99721  37.04023  37.05820
 Alpha virt. eigenvalues --   37.09847  37.11160 113.56914 113.59169 120.21674
 Alpha virt. eigenvalues --  120.23615 120.25263 120.25411
          Condensed to atoms (all electrons):
               1          2          3          4          5          6
     1  Sn  21.335790  -0.017165  -0.015660   0.100932   0.079357  -0.018938
     2  Sn  -0.017165  21.355755   0.147033  -0.014857   0.067503   0.106329
     3  Bi  -0.015660   0.147033  22.383960  -0.018060   0.145480   0.188727
     4  Ge   0.100932  -0.014857  -0.018060  31.603962  -0.014896   0.188511
     5  Ge   0.079357   0.067503   0.145480  -0.014896  31.525635  -0.018579
     6  Bi  -0.018938   0.106329   0.188727   0.188511  -0.018579  22.395159
     7  Ge   0.151211   0.183642  -0.016697  -0.010886   0.179297  -0.014890
     8  Bi   0.117767   0.091097  -0.024864   0.145468  -0.027126   0.168359
     9  Bi   0.151643  -0.017903   0.186882   0.191667   0.139369  -0.026723
               7          8          9
     1  Sn   0.151211   0.117767   0.151643
     2  Sn   0.183642   0.091097  -0.017903
     3  Bi  -0.016697  -0.024864   0.186882
     4  Ge  -0.010886   0.145468   0.191667
     5  Ge   0.179297  -0.027126   0.139369
     6  Bi  -0.014890   0.168359  -0.026723
     7  Ge  31.597318   0.152988  -0.018390
     8  Bi   0.152988  22.270633  -0.025793
     9  Bi  -0.018390  -0.025793  22.368118
 Mulliken charges:
               1
     1  Sn   0.115063
     2  Sn   0.098565
     3  Bi   0.023200
     4  Ge  -0.171841
     5  Ge  -0.076041
     6  Bi   0.032046
     7  Ge  -0.203593
     8  Bi   0.131471
     9  Bi   0.051131
 Sum of Mulliken charges =   0.00000
 Mulliken charges with hydrogens summed into heavy atoms:
               1
     1  Sn   0.115063
     2  Sn   0.098565
     3  Bi   0.023200
     4  Ge  -0.171841
     5  Ge  -0.076041
     6  Bi   0.032046
     7  Ge  -0.203593
     8  Bi   0.131471
     9  Bi   0.051131
 Electronic spatial extent (au):  <R**2>=           6065.7704
 Charge=              0.0000 electrons
 Dipole moment (field-independent basis, Debye):
    X=              0.2884    Y=             -1.1551    Z=             -0.6078  Tot=              1.3367
 Quadrupole moment (field-independent basis, Debye-Ang):
   XX=           -215.2453   YY=           -215.9056   ZZ=           -223.2568
   XY=             -0.7442   XZ=             -0.1093   YZ=             -0.6011
 Traceless Quadrupole moment (field-independent basis, Debye-Ang):
   XX=              2.8906   YY=              2.2303   ZZ=             -5.1209
   XY=             -0.7442   XZ=             -0.1093   YZ=             -0.6011
 Octapole moment (field-independent basis, Debye-Ang**2):
  XXX=             42.2954  YYY=            -75.4104  ZZZ=            -75.7399  XYY=             20.3697
  XXY=            -28.4208  XXZ=            -33.4976  XZZ=             20.7776  YZZ=            -36.3446
  YYZ=            -29.3336  XYZ=             -1.5926
 Hexadecapole moment (field-independent basis, Debye-Ang**3):
 XXXX=          -3282.7130 YYYY=          -3428.8223 ZZZZ=          -2931.2685 XXXY=             12.9816
 XXXZ=             49.6807 YYYX=             11.7997 YYYZ=             26.4214 ZZZX=             33.5783
 ZZZY=             13.3868 XXYY=          -1125.2181 XXZZ=          -1059.3881 YYZZ=          -1050.4333
 XXYZ=            -14.1136 YYXZ=              8.0388 ZZXY=             23.6327
 N-N= 3.532840092541D+03 E-N=-2.465714503662D+04  KE= 6.661965176890D+03
 No NMR shielding tensors so no spin-rotation constants.
 Leave Link  601 at Tue Mar  6 12:23:13 2018, MaxMem=   536870912 cpu:         2.6
 (Enter /share/apps//mg09/l701.exe)
 Compute integral first derivatives.
 ... and contract with generalized density number  0.
   1 Symmetry operations used in ECPInt.
 ECPInt:  NShTT=   10440 NPrTT=   41973 LenC2=    9671 LenP2D=   27480.
 LDataN:  DoStor=T MaxTD1= 9 Len=  602
 Leave Link  701 at Tue Mar  6 12:23:46 2018, MaxMem=   536870912 cpu:       123.7
 (Enter /share/apps//mg09/l702.exe)
 L702 exits ... SP integral derivatives will be done elsewhere.
 Leave Link  702 at Tue Mar  6 12:23:46 2018, MaxMem=   536870912 cpu:         0.4
 (Enter /share/apps//mg09/l703.exe)
 Compute integral first derivatives, UseDBF=F ICtDFT=           0.
 Integral derivatives from FoFJK, PRISM(SPDF).
 Calling FoFJK, ICntrl=      2127 FMM=F ISym2X=0 I1Cent= 0 IOpClX= 0 NMat=1 NMatS=1 NMatT=0.
 FoFJK:  IHMeth= 1 ICntrl=    2127 DoSepK=F KAlg= 0 I1Cent=   0 FoldK=F
 IRaf=         0 NMat=   1 IRICut=       1 DoRegI=T DoRafI=F ISym2E= 0.
 FoFCou: FMM=F IPFlag=           0 FMFlag=      100000 FMFlg1=         800
         NFxFlg=           0 DoJE=F BraDBF=F KetDBF=F FulRan=T
         wScrn=  0.000000 ICntrl=    2127 IOpCl=  0 I1Cent=           0 NGrid=           0
         NMat0=    1 NMatS0=      1 NMatT0=    0 NMatD0=    1 NMtDS0=    0 NMtDT0=    0
 Symmetry not used in FoFCou.
 Defaulting to unpruned grid for atomic number  50.
 Defaulting to unpruned grid for atomic number  50.
 Defaulting to unpruned grid for atomic number  50.
 Defaulting to unpruned grid for atomic number  50.
 Leave Link  703 at Tue Mar  6 12:32:05 2018, MaxMem=   536870912 cpu:      1840.6
 (Enter /share/apps//mg09/l716.exe)
 Dipole        = 1.13456165D-01-4.54448110D-01-2.39124197D-01
 ***** Axes restored to original set *****
 -------------------------------------------------------------------
 Center     Atomic                   Forces (Hartrees/Bohr)
 Number     Number              X              Y              Z
 -------------------------------------------------------------------
      1       50           0.002285972   -0.013787644    0.002807545
      2       50           0.002645029    0.011976362   -0.005184247
      3       83          -0.006308583    0.005418815    0.000896228
      4       32          -0.000187105   -0.001677084    0.011907381
      5       32          -0.011524854   -0.003838318   -0.009071407
      6       83           0.000433419    0.007391742    0.003153347
      7       32           0.011520776   -0.004489423   -0.010879968
      8       83           0.009453463    0.002385090    0.003002126
      9       83          -0.008318117   -0.003379540    0.003368995
 -------------------------------------------------------------------
 Cartesian Forces:  Max     0.013787644 RMS     0.007089415
 Force constants in Cartesian coordinates: 
                1             2             3             4             5 
      1  0.138007D+00
      2 -0.187248D-01  0.213781D+00
      3 -0.120872D-01 -0.792964D-02  0.133948D+00
      4  0.724400D-02 -0.187789D-02  0.179283D-02  0.130933D+00
      5  0.190130D-02 -0.714067D-02  0.275127D-02  0.695512D-02  0.175845D+00
      6  0.362546D-03  0.910561D-02  0.484038D-02 -0.252207D-01 -0.360523D-01
      7  0.160318D-02  0.906785D-02 -0.677515D-03 -0.513939D-01  0.137128D-01
      8  0.416242D-03 -0.279904D-02 -0.113322D-02 -0.179685D-01 -0.280459D-01
      9 -0.167669D-02  0.203273D-02  0.624132D-02  0.281242D-01  0.566691D-03
     10 -0.134609D-01  0.383373D-02  0.794740D-02  0.481725D-02 -0.181661D-03
     11  0.284850D-02 -0.390008D-01 -0.286489D-01 -0.304698D-02  0.265014D-02
     12 -0.427998D-04  0.101990D-01 -0.378582D-01  0.357310D-02  0.789847D-02
     13 -0.240442D-01 -0.514462D-02 -0.137655D-01 -0.221086D-01 -0.621138D-02
     14  0.181237D-01 -0.333228D-01  0.173672D-01 -0.197454D-01 -0.311528D-01
     15 -0.111412D-01 -0.121714D-01 -0.302443D-01  0.487207D-02  0.151975D-01
     16  0.508015D-02 -0.213571D-02 -0.190160D-02 -0.126155D-01  0.275161D-02
     17  0.417556D-02 -0.504891D-02  0.237670D-03 -0.267503D-02 -0.272170D-01
     18  0.307863D-03 -0.627234D-02  0.485025D-02  0.259884D-02 -0.183665D-01
     19 -0.252785D-01  0.957540D-02  0.830055D-02 -0.265243D-01 -0.235899D-02
     20 -0.142228D-01 -0.439604D-01  0.318747D-01  0.234786D-01 -0.613804D-01
     21  0.188640D-01 -0.489805D-02 -0.442650D-01  0.427852D-02  0.171441D-01
     22 -0.368072D-01  0.765668D-02 -0.507510D-02 -0.317635D-01 -0.991021D-02
     23 -0.295946D-01 -0.459325D-01 -0.805850D-02  0.163932D-01 -0.250238D-01
     24 -0.364624D-02  0.284994D-02 -0.161697D-01 -0.192600D-01  0.830011D-02
     25 -0.523433D-01 -0.225060D-02  0.154661D-01  0.141107D-02 -0.665857D-02
     26  0.350769D-01 -0.365765D-01 -0.646067D-02 -0.151312D-02  0.146538D-02
     27  0.905974D-02  0.708421D-02 -0.213428D-01 -0.758835D-03  0.256059D-02
                6             7             8             9            10 
      6  0.159499D+00
      7  0.717070D-02  0.157380D+00
      8  0.135988D-01 -0.272466D-01  0.147799D+00
      9 -0.262463D-01 -0.721786D-03  0.500977D-02  0.105911D+00
     10 -0.247768D-02  0.444212D-03  0.577900D-02 -0.240793D-02  0.122347D+00
     11  0.192086D-02  0.576294D-02  0.346560D-02  0.366812D-02  0.147668D-01
     12 -0.287799D-02 -0.239978D-02  0.369621D-02 -0.326459D-02  0.172839D-02
     13 -0.132834D-01 -0.335885D-01  0.230580D-01  0.144351D-01  0.494294D-02
     14 -0.122713D-01 -0.137861D-02 -0.522411D-01 -0.350668D-01 -0.167411D-02
     15 -0.277791D-01 -0.936219D-02 -0.147124D-01 -0.391033D-01 -0.168327D-02
     16  0.104713D-01 -0.415633D-01 -0.138295D-01 -0.302008D-01 -0.166808D-01
     17  0.187794D-01  0.988253D-02 -0.268113D-01 -0.841525D-03  0.875903D-03
     18 -0.493882D-01 -0.649603D-02 -0.133085D-01 -0.299849D-01 -0.285302D-02
     19  0.122583D-01 -0.118164D-03  0.707281D-02  0.562076D-03  0.493706D-02
     20 -0.197421D-01  0.689467D-02  0.495566D-02  0.703488D-03  0.301053D-02
     21 -0.321279D-01  0.599725D-02 -0.301459D-02  0.259225D-02 -0.231514D-03
     22  0.428533D-02 -0.523024D-02  0.730109D-02 -0.242602D-02 -0.541361D-01
     23  0.188226D-01 -0.168765D-02  0.308895D-02  0.289395D-03 -0.143800D-01
     24 -0.276725D-01 -0.134509D-02  0.181018D-02  0.523733D-02  0.377749D-01
     25  0.643364D-02 -0.275330D-01  0.154174D-01 -0.568819D-02 -0.532107D-01
     26  0.583842D-02 -0.150079D-01 -0.494118D-01  0.236381D-01 -0.120303D-01
     27  0.175300D-02  0.783444D-02  0.805365D-02 -0.213830D-01 -0.377973D-01
               11            12            13            14            15 
     11  0.130369D+00
     12 -0.164902D-01  0.180880D+00
     13  0.911231D-03 -0.559757D-02  0.178935D+00
     14  0.418752D-02 -0.486764D-02  0.589305D-02  0.152208D+00
     15  0.376995D-02 -0.534183D-02  0.180700D-01  0.289703D-01  0.209343D+00
     16 -0.454655D-02 -0.135091D-02  0.444805D-02 -0.197560D-03 -0.220933D-02
     17 -0.662459D-01 -0.491440D-02 -0.450963D-02  0.418236D-04 -0.902417D-02
     18  0.329713D-01 -0.368652D-01 -0.277779D-02 -0.303976D-03 -0.131366D-02
     19  0.217950D-02  0.604260D-02 -0.693308D-01  0.867378D-02  0.212048D-01
     20  0.692333D-02 -0.209017D-02 -0.849840D-02 -0.270053D-01 -0.433726D-02
     21  0.220658D-02 -0.512857D-02 -0.204251D-01 -0.450578D-02 -0.368337D-01
     22 -0.658520D-02 -0.394290D-03 -0.530112D-02 -0.443761D-02 -0.119371D-01
     23 -0.196867D-01  0.317534D-02 -0.926177D-03  0.616861D-02 -0.232372D-02
     24  0.781624D-02 -0.475148D-01 -0.344081D-02 -0.261961D-02  0.113961D-02
     25 -0.122903D-01 -0.155876D-02 -0.339526D-01 -0.525717D-02 -0.781369D-02
     26 -0.226622D-01  0.339343D-02 -0.457210D-02 -0.188835D-01 -0.536878D-02
     27 -0.721402D-02 -0.420287D-01  0.267851D-01  0.132975D-01 -0.698667D-01
               16            17            18            19            20 
     16  0.102610D+00
     17 -0.704104D-02  0.162927D+00
     18  0.869524D-02  0.219390D-01  0.134169D+00
     19  0.445461D-02  0.234607D-02  0.554194D-02  0.149713D+00
     20 -0.229326D-02  0.109681D-02 -0.441870D-02 -0.115378D-01  0.140033D+00
     21  0.162420D-02 -0.800368D-02  0.773002D-03 -0.271793D-01  0.182755D-01
     22 -0.455221D-01  0.239382D-02 -0.712084D-02 -0.376206D-01  0.320824D-02
     23  0.337383D-01 -0.352721D-01 -0.871719D-02 -0.114621D-01 -0.256084D-01
     24  0.129032D-01 -0.147135D-01 -0.258214D-01 -0.319049D-01 -0.169697D-01
     25 -0.211477D-03 -0.544819D-02  0.210380D-02 -0.232545D-03 -0.397466D-04
     26 -0.644629D-02 -0.347045D-02 -0.352319D-02 -0.448865D-02  0.494604D-02
     27  0.196864D-02 -0.345875D-02  0.358111D-02  0.517403D-02 -0.329577D-02
               21            22            23            24            25 
     21  0.178428D+00
     22  0.788021D-02  0.222235D+00
     23 -0.179362D-01  0.705699D-02  0.138540D+00
     24 -0.660259D-01  0.112720D-01  0.130139D-01  0.171014D+00
     25  0.919173D-02 -0.585376D-02  0.861876D-03 -0.235306D-02  0.171926D+00
     26  0.732115D-03 -0.668380D-02  0.372613D-02  0.512517D-03  0.156653D-01
     27  0.258753D-02  0.351578D-02  0.173449D-02  0.581360D-02 -0.157816D-01
               26            27 
     26  0.120867D+00
     27 -0.187619D-01  0.140886D+00
 Leave Link  716 at Tue Mar  6 12:32:05 2018, MaxMem=   536870912 cpu:         0.4
 (Enter /share/apps//mg09/l103.exe)

 GradGradGradGradGradGradGradGradGradGradGradGradGradGradGradGradGradGrad
 Berny optimization.
 Search for a local minimum.
 Step number   1 out of a maximum of  100
 All quantities printed in internal units (Hartrees-Bohrs-Radians)
 Second derivative matrix not updated -- first step.
 ITU=  0
     Eigenvalues ---    0.08158   0.11927   0.12097   0.12825   0.13885
     Eigenvalues ---    0.14224   0.14498   0.15119   0.15803   0.16614
     Eigenvalues ---    0.17260   0.22612   0.22929   0.23492   0.23737
     Eigenvalues ---    0.25637   0.26553   0.27935   0.28871   0.29662
     Eigenvalues ---    0.31728
 RFO step:  Lambda=-8.13561225D-03 EMin= 8.15770573D-02
 Linear search not attempted -- first point.
 TrRot=  0.000033 -0.000948 -0.000748  0.000005  0.000011  0.000005
 Variable       Old X    -DE/DX   Delta X   Delta X   Delta X     New X
                                 (Linear)    (Quad)   (Total)
    X1       -1.24112   0.00229   0.00000   0.01295   0.01293  -1.22819
    Y1        5.08817  -0.01379   0.00000  -0.07967  -0.08063   5.00754
    Z1        0.05588   0.00281   0.00000   0.01364   0.01290   0.06878
    X2       -1.43721   0.00265   0.00000   0.01630   0.01640  -1.42081
    Y2       -3.10427   0.01198   0.00000   0.06991   0.06895  -3.03532
    Z2        3.49422  -0.00518   0.00000  -0.03763  -0.03836   3.45586
    X3        3.73992  -0.00631   0.00000  -0.04764  -0.04757   3.69235
    Y3       -2.53061   0.00542   0.00000   0.03847   0.03756  -2.49305
    Z3        1.00676   0.00090   0.00000   0.00050  -0.00029   1.00647
    X4       -0.61060  -0.00019   0.00000  -0.00044  -0.00047  -0.61107
    Y4        1.45579  -0.00168   0.00000  -0.00613  -0.00709   1.44870
    Z4       -4.46880   0.01191   0.00000   0.07369   0.07295  -4.39586
    X5        2.08164  -0.01152   0.00000  -0.05923  -0.05918   2.02246
    Y5        1.90126  -0.00384   0.00000  -0.01967  -0.02059   1.88067
    Z5        3.91484  -0.00907   0.00000  -0.05087  -0.05164   3.86319
    X6       -0.69208   0.00043   0.00000   0.00989   0.00993  -0.68215
    Y6       -3.66612   0.00739   0.00000   0.05385   0.05290  -3.61322
    Z6       -2.47522   0.00315   0.00000   0.02865   0.02791  -2.44731
    X7       -3.04945   0.01152   0.00000   0.06493   0.06499  -2.98446
    Y7        2.01231  -0.00449   0.00000  -0.02303  -0.02401   1.98830
    Z7        4.23452  -0.01088   0.00000  -0.06311  -0.06382   4.17069
    X8       -4.57972   0.00945   0.00000   0.05669   0.05671  -4.52301
    Y8        0.21337   0.00239   0.00000   0.00765   0.00665   0.22002
    Z8       -0.74587   0.00300   0.00000   0.01891   0.01821  -0.72766
    X9        3.75388  -0.00832   0.00000  -0.05375  -0.05376   3.70012
    Y9        2.71812  -0.00338   0.00000  -0.03282  -0.03373   2.68438
    Z9       -1.34329   0.00337   0.00000   0.02294   0.02215  -1.32114
         Item               Value     Threshold  Converged?
 Maximum Force            0.013788     0.000450     NO 
 RMS     Force            0.007089     0.000300     NO 
 Maximum Displacement     0.080628     0.001800     NO 
 RMS     Displacement     0.042872     0.001200     NO 
 Predicted change in Energy=-4.269723D-03
 Lowest energy point so far.  Saving SCF results.
 GradGradGradGradGradGradGradGradGradGradGradGradGradGradGradGradGradGrad

 Leave Link  103 at Tue Mar  6 12:32:05 2018, MaxMem=   536870912 cpu:         0.1
 (Enter /share/apps//mg09/l202.exe)
                          Input orientation:                          
 ---------------------------------------------------------------------
 Center     Atomic      Atomic             Coordinates (Angstroms)
 Number     Number       Type             X           Y           Z
 ---------------------------------------------------------------------
      1         50           0       -0.649928    2.649874    0.036397
      2         50           0       -0.751859   -1.606220    1.828762
      3         83           0        1.953907   -1.319267    0.532603
      4         32           0       -0.323362    0.766621   -2.326187
      5         32           0        1.070241    0.995205    2.044314
      6         83           0       -0.360978   -1.912034   -1.295063
      7         32           0       -1.579308    1.052163    2.207036
      8         83           0       -2.393471    0.116432   -0.385063
      9         83           0        1.958019    1.420515   -0.699116
 ---------------------------------------------------------------------
                    Distance matrix (angstroms):
                    1          2          3          4          5
     1  Sn   0.000000
     2  Sn   4.619232   0.000000
     3  Bi   4.772867   3.013890   0.000000
     4  Ge   3.038929   4.803914   4.208273   0.000000
     5  Ge   3.119077   3.183383   2.902226   4.593002   0.000000
     6  Bi   4.761017   3.163003   3.008392   2.870510   4.653156
     7  Ge   2.850984   2.809763   4.572856   4.712648   2.655153
     8  Bi   3.104175   3.250146   4.669372   2.911368   4.321044
     9  Bi   2.975515   4.784844   3.003923   2.877436   2.914695
                    6          7          8          9
     6  Bi   0.000000
     7  Ge   4.747156   0.000000
     8  Bi   3.012275   2.873575   0.000000
     9  Bi   4.103508   4.592831   4.553541   0.000000
 Stoichiometry    Bi4Ge3Sn2
 Framework group  C1[X(Bi4Ge3Sn2)]
 Deg. of freedom    21
 Full point group                 C1      NOp   1
 RotChk:  IX=0 Diff= 2.29D-02
 Largest Abelian subgroup         C1      NOp   1
 Largest concise Abelian subgroup C1      NOp   1
                         Standard orientation:                         
 ---------------------------------------------------------------------
 Center     Atomic      Atomic             Coordinates (Angstroms)
 Number     Number       Type             X           Y           Z
 ---------------------------------------------------------------------
      1         50           0       -0.689857    2.636519    0.023725
      2         50           0       -0.722750   -1.613364    1.833343
      3         83           0        1.976315   -1.289486    0.531926
      4         32           0       -0.337391    0.749050   -2.331762
      5         32           0        1.058848    1.017016    2.035660
      6         83           0       -0.331701   -1.925674   -1.289818
      7         32           0       -1.591028    1.033298    2.202183
      8         83           0       -2.394270    0.074506   -0.384892
      9         83           0        1.935880    1.445023   -0.710805
 ---------------------------------------------------------------------
 Rotational constants (GHZ):      0.1033916      0.0967703      0.0828596
 Leave Link  202 at Tue Mar  6 12:32:07 2018, MaxMem=   536870912 cpu:         0.1
 (Enter /share/apps//mg09/l301.exe)
 Standard basis: def2TZVP (5D, 7F)
 Ernie: Thresh=  0.10000D-02 Tol=  0.10000D-05 Strict=F.
 There are   519 symmetry adapted cartesian basis functions of A   symmetry.
 There are   444 symmetry adapted basis functions of A   symmetry.
   444 basis functions,   963 primitive gaussians,   519 cartesian basis functions
   116 alpha electrons      116 beta electrons
       nuclear repulsion energy      3588.1839608637 Hartrees.
 IExCor= 1009 DFT=T Ex+Corr=PBE1PBE ExCW=0 ScaHFX=  0.250000
 ScaDFX=  0.750000  0.750000  1.000000  1.000000 ScalE2=  1.000000  1.000000
 IRadAn=      0 IRanWt=     -1 IRanGd=            0 ICorTp=0 IEmpDi=  4
 NAtoms=    9 NActive=    9 NUniq=    9 SFac= 1.00D+00 NAtFMM=   60 NAOKFM=F Big=F
 Integral buffers will be    131072 words long.
 Raffenetti 2 integral format.
 Two-electron integral symmetry is turned on.
 Leave Link  301 at Tue Mar  6 12:32:07 2018, MaxMem=   536870912 cpu:         0.2
 (Enter /share/apps//mg09/l302.exe)
 NPDir=0 NMtPBC=     1 NCelOv=     1 NCel=       1 NClECP=     1 NCelD=      1
         NCelK=      1 NCelE2=     1 NClLst=     1 CellRange=     0.0.
 One-electron integrals computed using PRISM.
   1 Symmetry operations used in ECPInt.
 ECPInt:  NShTT=   10440 NPrTT=   41973 LenC2=    9691 LenP2D=   27649.
 LDataN:  DoStor=T MaxTD1= 8 Len=  415
 NBasis=   444 RedAO= T EigKep=  1.38D-03  NBF=   444
 NBsUse=   444 1.00D-06 EigRej= -1.00D+00 NBFU=   444
 Precomputing XC quadrature grid using
 IXCGrd= 4 IRadAn=           0 IRanWt=          -1 IRanGd=           0 AccXCQ= 0.00D+00.
 Defaulting to unpruned grid for atomic number  50.
 Defaulting to unpruned grid for atomic number  83.
 Defaulting to unpruned grid for atomic number  83.
 Generated NRdTot=       0 NPtTot=           0 NUsed=           0 NTot=          32
 NSgBfM=   504   504   508   508   508 MxSgAt=     9 MxSgA2=     9.
 Leave Link  302 at Tue Mar  6 12:32:20 2018, MaxMem=   536870912 cpu:        51.5
 (Enter /share/apps//mg09/l303.exe)
 DipDrv:  MaxL=1.
 Leave Link  303 at Tue Mar  6 12:32:21 2018, MaxMem=   536870912 cpu:         0.2
 (Enter /share/apps//mg09/l401.exe)
 Initial guess from the checkpoint file:  "Isomer_11.chk"
 B after Tr=     0.000000    0.000000    0.000000
         Rot=    0.999967    0.002040   -0.000694   -0.007777 Ang=   0.92 deg.
 Guess basis will be translated and rotated to current coordinates.
 JPrj=2 DoOrth=T DoCkMO=T.
 Generating alternative initial guess.
 ExpMin= 4.62D-02 ExpMax= 4.66D+05 ExpMxC= 4.50D+03 IAcc=2 IRadAn=         4 AccDes= 0.00D+00
 Harris functional with IExCor= 1009 and IRadAn=       4 diagonalized for initial guess.
 HarFok:  IExCor= 1009 AccDes= 0.00D+00 IRadAn=         4 IDoV= 1 UseB2=F ITyADJ=14
 ICtDFT=  3500011 ScaDFX=  1.000000  1.000000  1.000000  1.000000
 Defaulting to unpruned grid for atomic number  50.
 Defaulting to unpruned grid for atomic number  50.
 Defaulting to unpruned grid for atomic number  50.
 Defaulting to unpruned grid for atomic number  50.
 FoFCou: FMM=F IPFlag=           0 FMFlag=      100000 FMFlg1=           0
         NFxFlg=           0 DoJE=T BraDBF=F KetDBF=T FulRan=T
         wScrn=  0.000000 ICntrl=     500 IOpCl=  0 I1Cent=   200000004 NGrid=           0
         NMat0=    1 NMatS0=      1 NMatT0=    0 NMatD0=    1 NMtDS0=    0 NMtDT0=    0
 Petite list used in FoFCou.
 Harris En= -7518.62190937537    
 Leave Link  401 at Tue Mar  6 12:32:25 2018, MaxMem=   536870912 cpu:        18.6
 (Enter /share/apps//mg09/l502.exe)
 Closed shell SCF:
 Using DIIS extrapolation, IDIIS=  1040.
 Integral symmetry usage will be decided dynamically.
 IVT=     1410107 IEndB=     1410107 NGot=   536870912 MDV=   536322046
 LenX=   536322046 LenY=   536052166
 Requested convergence on RMS density matrix=1.00D-08 within 768 cycles.
 Requested convergence on MAX density matrix=1.00D-06.
 Requested convergence on             energy=1.00D-06.
 No special actions if energy rises.
 Fock matrices will be formed incrementally for  20 cycles.

 Cycle   1  Pass 1  IDiag  1:
 FoFJK:  IHMeth= 1 ICntrl=       0 DoSepK=F KAlg= 0 I1Cent=   0 FoldK=F
 IRaf= 880000000 NMat=   1 IRICut=       1 DoRegI=T DoRafI=F ISym2E= 0.
 FoFCou: FMM=F IPFlag=           0 FMFlag=      100000 FMFlg1=           0
         NFxFlg=           0 DoJE=F BraDBF=F KetDBF=F FulRan=T
         wScrn=  0.000000 ICntrl=       0 IOpCl=  0 I1Cent=           0 NGrid=           0
         NMat0=    1 NMatS0=      1 NMatT0=    0 NMatD0=    1 NMtDS0=    0 NMtDT0=    0
 Symmetry not used in FoFCou.
 Defaulting to unpruned grid for atomic number  50.
 Defaulting to unpruned grid for atomic number  50.
 Defaulting to unpruned grid for atomic number  50.
 Defaulting to unpruned grid for atomic number  50.
 E= -7517.82335211879    
 DIIS: error= 5.42D-03 at cycle   1 NSaved=   1.
 NSaved= 1 IEnMin= 1 EnMin= -7517.82335211879     IErMin= 1 ErrMin= 5.42D-03
 ErrMax= 5.42D-03  0.00D+00 EMaxC= 1.00D-01 BMatC= 8.43D-03 BMatP= 8.43D-03
 IDIUse=3 WtCom= 9.46D-01 WtEn= 5.42D-02
 Coeff-Com:  0.100D+01
 Coeff-En:   0.100D+01
 Coeff:      0.100D+01
 Gap=     7.572 Goal=   None    Shift=    0.000
 GapD=    7.572 DampG=2.000 DampE=1.000 DampFc=2.0000 IDamp=-1.
 RMSDP=1.77D-04 MaxDP=4.56D-03              OVMax= 2.03D-02

 Cycle   2  Pass 1  IDiag  1:
 RMSU=  1.76D-04    CP:  1.00D+00
 E= -7517.82337079380     Delta-E=       -0.000018675013 Rises=F Damp=F
 DIIS: error= 1.60D-03 at cycle   2 NSaved=   2.
 NSaved= 2 IEnMin= 2 EnMin= -7517.82337079380     IErMin= 2 ErrMin= 1.60D-03
 ErrMax= 1.60D-03  0.00D+00 EMaxC= 1.00D-01 BMatC= 1.58D-03 BMatP= 8.43D-03
 IDIUse=3 WtCom= 9.84D-01 WtEn= 1.60D-02
 Coeff-Com:  0.196D+00 0.804D+00
 Coeff-En:   0.495D+00 0.505D+00
 Coeff:      0.201D+00 0.799D+00
 Gap=     0.126 Goal=   None    Shift=    0.000
 RMSDP=2.13D-04 MaxDP=8.92D-03 DE=-1.87D-05 OVMax= 1.60D-02

 Cycle   3  Pass 1  IDiag  1:
 RMSU=  1.94D-04    CP:  9.99D-01  5.26D-01
 E= -7517.82125746714     Delta-E=        0.002113326662 Rises=F Damp=F
 DIIS: error= 2.33D-03 at cycle   3 NSaved=   3.
 NSaved= 3 IEnMin= 2 EnMin= -7517.82337079380     IErMin= 2 ErrMin= 1.60D-03
 ErrMax= 2.33D-03  0.00D+00 EMaxC= 1.00D-01 BMatC= 3.87D-03 BMatP= 1.58D-03
 IDIUse=3 WtCom= 1.72D-01 WtEn= 8.28D-01
 Coeff-Com:  0.820D-02 0.609D+00 0.383D+00
 Coeff-En:   0.000D+00 0.675D+00 0.325D+00
 Coeff:      0.141D-02 0.664D+00 0.335D+00
 Gap=     0.128 Goal=   None    Shift=    0.000
 RMSDP=1.23D-04 MaxDP=5.30D-03 DE= 2.11D-03 OVMax= 1.23D-02

 Cycle   4  Pass 1  IDiag  1:
 RMSU=  4.95D-05    CP:  9.99D-01  7.87D-01  4.74D-01
 E= -7517.82440733653     Delta-E=       -0.003149869395 Rises=F Damp=F
 DIIS: error= 5.36D-04 at cycle   4 NSaved=   4.
 NSaved= 4 IEnMin= 4 EnMin= -7517.82440733653     IErMin= 4 ErrMin= 5.36D-04
 ErrMax= 5.36D-04  0.00D+00 EMaxC= 1.00D-01 BMatC= 2.69D-04 BMatP= 1.58D-03
 IDIUse=3 WtCom= 9.95D-01 WtEn= 5.36D-03
 Coeff-Com:  0.180D-03 0.448D+00 0.237D+00 0.314D+00
 Coeff-En:   0.000D+00 0.122D+00 0.000D+00 0.878D+00
 Coeff:      0.179D-03 0.446D+00 0.236D+00 0.317D+00
 Gap=     0.128 Goal=   None    Shift=    0.000
 RMSDP=4.22D-05 MaxDP=1.73D-03 DE=-3.15D-03 OVMax= 4.38D-03

 Cycle   5  Pass 1  IDiag  1:
 RMSU=  1.39D-05    CP:  9.99D-01  8.51D-01  4.36D-01  2.49D-01
 E= -7517.82463564396     Delta-E=       -0.000228307428 Rises=F Damp=F
 DIIS: error= 9.50D-05 at cycle   5 NSaved=   5.
 NSaved= 5 IEnMin= 5 EnMin= -7517.82463564396     IErMin= 5 ErrMin= 9.50D-05
 ErrMax= 9.50D-05  0.00D+00 EMaxC= 1.00D-01 BMatC= 1.47D-05 BMatP= 2.69D-04
 IDIUse=1 WtCom= 1.00D+00 WtEn= 0.00D+00
 Coeff-Com: -0.942D-03 0.223D+00 0.107D+00 0.226D+00 0.445D+00
 Coeff:     -0.942D-03 0.223D+00 0.107D+00 0.226D+00 0.445D+00
 Gap=     0.128 Goal=   None    Shift=    0.000
 RMSDP=9.68D-06 MaxDP=4.37D-04 DE=-2.28D-04 OVMax= 1.11D-03

 Cycle   6  Pass 1  IDiag  1:
 RMSU=  4.00D-06    CP:  9.99D-01  8.59D-01  4.28D-01  3.78D-01  6.17D-01
 E= -7517.82465035683     Delta-E=       -0.000014712869 Rises=F Damp=F
 DIIS: error= 1.99D-05 at cycle   6 NSaved=   6.
 NSaved= 6 IEnMin= 6 EnMin= -7517.82465035683     IErMin= 6 ErrMin= 1.99D-05
 ErrMax= 1.99D-05  0.00D+00 EMaxC= 1.00D-01 BMatC= 5.10D-07 BMatP= 1.47D-05
 IDIUse=1 WtCom= 1.00D+00 WtEn= 0.00D+00
 Coeff-Com: -0.498D-03 0.919D-01 0.444D-01 0.101D+00 0.238D+00 0.525D+00
 Coeff:     -0.498D-03 0.919D-01 0.444D-01 0.101D+00 0.238D+00 0.525D+00
 Gap=     0.128 Goal=   None    Shift=    0.000
 RMSDP=3.30D-06 MaxDP=1.58D-04 DE=-1.47D-05 OVMax= 3.96D-04

 Cycle   7  Pass 1  IDiag  1:
 RMSU=  2.73D-06    CP:  9.99D-01  8.63D-01  4.30D-01  3.80D-01  6.81D-01
                    CP:  6.38D-01
 E= -7517.82465039428     Delta-E=       -0.000000037453 Rises=F Damp=F
 DIIS: error= 2.37D-05 at cycle   7 NSaved=   7.
 NSaved= 7 IEnMin= 7 EnMin= -7517.82465039428     IErMin= 6 ErrMin= 1.99D-05
 ErrMax= 2.37D-05  0.00D+00 EMaxC= 1.00D-01 BMatC= 4.35D-07 BMatP= 5.10D-07
 IDIUse=1 WtCom= 1.00D+00 WtEn= 0.00D+00
 Coeff-Com: -0.159D-03 0.132D-01 0.718D-02 0.220D-01 0.776D-01 0.470D+00
 Coeff-Com:  0.410D+00
 Coeff:     -0.159D-03 0.132D-01 0.718D-02 0.220D-01 0.776D-01 0.470D+00
 Coeff:      0.410D+00
 Gap=     0.128 Goal=   None    Shift=    0.000
 RMSDP=2.15D-06 MaxDP=9.33D-05 DE=-3.75D-08 OVMax= 2.41D-04

 Cycle   8  Pass 1  IDiag  1:
 RMSU=  9.25D-07    CP:  9.99D-01  8.64D-01  4.32D-01  3.78D-01  6.93D-01
                    CP:  9.33D-01  4.73D-01
 E= -7517.82465090659     Delta-E=       -0.000000512304 Rises=F Damp=F
 DIIS: error= 6.32D-06 at cycle   8 NSaved=   8.
 NSaved= 8 IEnMin= 8 EnMin= -7517.82465090659     IErMin= 8 ErrMin= 6.32D-06
 ErrMax= 6.32D-06  0.00D+00 EMaxC= 1.00D-01 BMatC= 5.40D-08 BMatP= 4.35D-07
 IDIUse=1 WtCom= 1.00D+00 WtEn= 0.00D+00
 Coeff-Com: -0.133D-07-0.129D-01-0.537D-02-0.733D-02 0.332D-03 0.232D+00
 Coeff-Com:  0.305D+00 0.489D+00
 Coeff:     -0.133D-07-0.129D-01-0.537D-02-0.733D-02 0.332D-03 0.232D+00
 Coeff:      0.305D+00 0.489D+00
 Gap=     0.128 Goal=   None    Shift=    0.000
 RMSDP=6.91D-07 MaxDP=4.36D-05 DE=-5.12D-07 OVMax= 6.91D-05

 Cycle   9  Pass 1  IDiag  1:
 RMSU=  2.74D-07    CP:  9.99D-01  8.64D-01  4.33D-01  3.81D-01  7.01D-01
                    CP:  9.52D-01  6.09D-01  5.38D-01
 E= -7517.82465096344     Delta-E=       -0.000000056856 Rises=F Damp=F
 DIIS: error= 1.24D-06 at cycle   9 NSaved=   9.
 NSaved= 9 IEnMin= 9 EnMin= -7517.82465096344     IErMin= 9 ErrMin= 1.24D-06
 ErrMax= 1.24D-06  0.00D+00 EMaxC= 1.00D-01 BMatC= 3.45D-09 BMatP= 5.40D-08
 IDIUse=1 WtCom= 1.00D+00 WtEn= 0.00D+00
 Coeff-Com:  0.194D-04-0.919D-02-0.391D-02-0.669D-02-0.989D-02 0.816D-01
 Coeff-Com:  0.132D+00 0.285D+00 0.531D+00
 Coeff:      0.194D-04-0.919D-02-0.391D-02-0.669D-02-0.989D-02 0.816D-01
 Coeff:      0.132D+00 0.285D+00 0.531D+00
 Gap=     0.128 Goal=   None    Shift=    0.000
 RMSDP=1.74D-07 MaxDP=1.21D-05 DE=-5.69D-08 OVMax= 2.42D-05

 Cycle  10  Pass 1  IDiag  1:
 RMSU=  9.71D-08    CP:  9.99D-01  8.64D-01  4.33D-01  3.82D-01  7.07D-01
                    CP:  9.57D-01  6.07D-01  6.20D-01  7.96D-01
 E= -7517.82465096685     Delta-E=       -0.000000003403 Rises=F Damp=F
 DIIS: error= 2.74D-07 at cycle  10 NSaved=  10.
 NSaved=10 IEnMin=10 EnMin= -7517.82465096685     IErMin=10 ErrMin= 2.74D-07
 ErrMax= 2.74D-07  0.00D+00 EMaxC= 1.00D-01 BMatC= 1.20D-10 BMatP= 3.45D-09
 IDIUse=1 WtCom= 1.00D+00 WtEn= 0.00D+00
 Coeff-Com:  0.590D-05-0.211D-02-0.878D-03-0.158D-02-0.363D-02 0.113D-01
 Coeff-Com:  0.232D-01 0.601D-01 0.191D+00 0.723D+00
 Coeff:      0.590D-05-0.211D-02-0.878D-03-0.158D-02-0.363D-02 0.113D-01
 Coeff:      0.232D-01 0.601D-01 0.191D+00 0.723D+00
 Gap=     0.128 Goal=   None    Shift=    0.000
 RMSDP=7.10D-08 MaxDP=2.58D-06 DE=-3.40D-09 OVMax= 9.30D-06

 Cycle  11  Pass 1  IDiag  1:
 RMSU=  5.94D-08    CP:  9.99D-01  8.64D-01  4.33D-01  3.82D-01  7.08D-01
                    CP:  9.61D-01  6.13D-01  6.24D-01  8.78D-01  9.06D-01
 E= -7517.82465096643     Delta-E=        0.000000000411 Rises=F Damp=F
 DIIS: error= 3.78D-07 at cycle  11 NSaved=  11.
 NSaved=11 IEnMin=10 EnMin= -7517.82465096685     IErMin=10 ErrMin= 2.74D-07
 ErrMax= 3.78D-07  0.00D+00 EMaxC= 1.00D-01 BMatC= 2.13D-10 BMatP= 1.20D-10
 IDIUse=1 WtCom= 1.00D+00 WtEn= 0.00D+00
 Coeff-Com:  0.106D-05 0.811D-04 0.578D-04 0.247D-04-0.111D-02-0.708D-02
 Coeff-Com: -0.777D-02-0.641D-02 0.558D-01 0.630D+00 0.337D+00
 Coeff:      0.106D-05 0.811D-04 0.578D-04 0.247D-04-0.111D-02-0.708D-02
 Coeff:     -0.777D-02-0.641D-02 0.558D-01 0.630D+00 0.337D+00
 Gap=     0.128 Goal=   None    Shift=    0.000
 RMSDP=4.52D-08 MaxDP=1.85D-06 DE= 4.11D-10 OVMax= 5.20D-06

 Cycle  12  Pass 1  IDiag  1:
 RMSU=  1.76D-08    CP:  9.99D-01  8.64D-01  4.33D-01  3.82D-01  7.08D-01
                    CP:  9.63D-01  6.15D-01  6.24D-01  8.93D-01  1.09D+00
                    CP:  3.95D-01
 E= -7517.82465096689     Delta-E=       -0.000000000455 Rises=F Damp=F
 DIIS: error= 8.69D-08 at cycle  12 NSaved=  12.
 NSaved=12 IEnMin=12 EnMin= -7517.82465096689     IErMin=12 ErrMin= 8.69D-08
 ErrMax= 8.69D-08  0.00D+00 EMaxC= 1.00D-01 BMatC= 9.89D-12 BMatP= 1.20D-10
 IDIUse=1 WtCom= 1.00D+00 WtEn= 0.00D+00
 Coeff-Com: -0.508D-06 0.481D-03 0.218D-03 0.331D-03-0.400D-05-0.680D-02
 Coeff-Com: -0.102D-01-0.160D-01-0.166D-02 0.283D+00 0.209D+00 0.542D+00
 Coeff:     -0.508D-06 0.481D-03 0.218D-03 0.331D-03-0.400D-05-0.680D-02
 Coeff:     -0.102D-01-0.160D-01-0.166D-02 0.283D+00 0.209D+00 0.542D+00
 Gap=     0.128 Goal=   None    Shift=    0.000
 RMSDP=1.18D-08 MaxDP=7.89D-07 DE=-4.55D-10 OVMax= 1.82D-06

 Cycle  13  Pass 1  IDiag  1:
 RMSU=  5.62D-09    CP:  9.99D-01  8.64D-01  4.33D-01  3.82D-01  7.08D-01
                    CP:  9.64D-01  6.14D-01  6.28D-01  9.02D-01  1.12D+00
                    CP:  4.96D-01  7.26D-01
 E= -7517.82465096676     Delta-E=        0.000000000131 Rises=F Damp=F
 DIIS: error= 2.12D-08 at cycle  13 NSaved=  13.
 NSaved=13 IEnMin=12 EnMin= -7517.82465096689     IErMin=13 ErrMin= 2.12D-08
 ErrMax= 2.12D-08  0.00D+00 EMaxC= 1.00D-01 BMatC= 8.78D-13 BMatP= 9.89D-12
 IDIUse=1 WtCom= 1.00D+00 WtEn= 0.00D+00
 Coeff-Com: -0.383D-06 0.254D-03 0.113D-03 0.180D-03 0.129D-03-0.294D-02
 Coeff-Com: -0.466D-02-0.809D-02-0.738D-02 0.866D-01 0.708D-01 0.294D+00
 Coeff-Com:  0.571D+00
 Coeff:     -0.383D-06 0.254D-03 0.113D-03 0.180D-03 0.129D-03-0.294D-02
 Coeff:     -0.466D-02-0.809D-02-0.738D-02 0.866D-01 0.708D-01 0.294D+00
 Coeff:      0.571D+00
 Gap=     0.128 Goal=   None    Shift=    0.000
 RMSDP=3.60D-09 MaxDP=1.87D-07 DE= 1.31D-10 OVMax= 4.18D-07

 SCF Done:  E(RPBE1PBE) =  -7517.82465097     A.U. after   13 cycles
            NFock= 13  Conv=0.36D-08     -V/T= 2.1284
 KE= 6.662182633824D+03 PE=-2.476790854853D+04 EE= 6.999717302873D+03
 Leave Link  502 at Tue Mar  6 12:51:37 2018, MaxMem=   536870912 cpu:      4369.3
 (Enter /share/apps//mg09/l701.exe)
 Compute integral first derivatives.
 ... and contract with generalized density number  0.
   1 Symmetry operations used in ECPInt.
 ECPInt:  NShTT=   10440 NPrTT=   41973 LenC2=    9691 LenP2D=   27649.
 LDataN:  DoStor=T MaxTD1= 9 Len=  602
 Leave Link  701 at Tue Mar  6 12:52:10 2018, MaxMem=   536870912 cpu:       130.9
 (Enter /share/apps//mg09/l702.exe)
 L702 exits ... SP integral derivatives will be done elsewhere.
 Leave Link  702 at Tue Mar  6 12:52:10 2018, MaxMem=   536870912 cpu:         0.1
 (Enter /share/apps//mg09/l703.exe)
 Compute integral first derivatives, UseDBF=F ICtDFT=           0.
 Integral derivatives from FoFJK, PRISM(SPDF).
 Calling FoFJK, ICntrl=      2127 FMM=F ISym2X=0 I1Cent= 0 IOpClX= 0 NMat=1 NMatS=1 NMatT=0.
 FoFJK:  IHMeth= 1 ICntrl=    2127 DoSepK=F KAlg= 0 I1Cent=   0 FoldK=F
 IRaf=         0 NMat=   1 IRICut=       1 DoRegI=T DoRafI=F ISym2E= 0.
 FoFCou: FMM=F IPFlag=           0 FMFlag=      100000 FMFlg1=         800
         NFxFlg=           0 DoJE=F BraDBF=F KetDBF=F FulRan=T
         wScrn=  0.000000 ICntrl=    2127 IOpCl=  0 I1Cent=           0 NGrid=           0
         NMat0=    1 NMatS0=      1 NMatT0=    0 NMatD0=    1 NMtDS0=    0 NMtDT0=    0
 Symmetry not used in FoFCou.
 Defaulting to unpruned grid for atomic number  50.
 Defaulting to unpruned grid for atomic number  50.
 Defaulting to unpruned grid for atomic number  50.
 Defaulting to unpruned grid for atomic number  50.
 Leave Link  703 at Tue Mar  6 12:58:53 2018, MaxMem=   536870912 cpu:      1557.0
 (Enter /share/apps//mg09/l716.exe)
 Dipole        = 1.35209875D-01-4.79853787D-01-2.65250183D-01
 ***** Axes restored to original set *****
 -------------------------------------------------------------------
 Center     Atomic                   Forces (Hartrees/Bohr)
 Number     Number              X              Y              Z
 -------------------------------------------------------------------
      1       50           0.001191864   -0.006281033    0.001519810
      2       50           0.001151604    0.006188356   -0.001534233
      3       83          -0.000477960    0.000879981    0.002240898
      4       32          -0.000530731    0.000043534    0.006085883
      5       32          -0.007334688   -0.002233911   -0.004798143
      6       83          -0.000105237    0.001598427   -0.000448289
      7       32           0.006299588   -0.001760006   -0.004541972
      8       83           0.002120084    0.001369020    0.000997943
      9       83          -0.002314524    0.000195634    0.000478104
 -------------------------------------------------------------------
 Cartesian Forces:  Max     0.007334688 RMS     0.003274375
 Leave Link  716 at Tue Mar  6 12:58:54 2018, MaxMem=   536870912 cpu:         0.1
 (Enter /share/apps//mg09/l103.exe)

 GradGradGradGradGradGradGradGradGradGradGradGradGradGradGradGradGradGrad
 Berny optimization.
 Search for a local minimum.
 Step number   2 out of a maximum of  100
 All quantities printed in internal units (Hartrees-Bohrs-Radians)
 Update second derivatives using D2CorN and points    1    2
 DE= -5.81D-03 DEPred=-4.27D-03 R= 1.36D+00
 TightC=F SS=  1.41D+00  RLast= 2.23D-01 DXNew= 5.0454D-01 6.6831D-01
 Trust test= 1.36D+00 RLast= 2.23D-01 DXMaxT set to 5.05D-01
 ITU=  1  0
     Eigenvalues ---    0.07999   0.09705   0.11953   0.12120   0.12881
     Eigenvalues ---    0.13911   0.14279   0.14723   0.15489   0.16603
     Eigenvalues ---    0.17243   0.22453   0.22823   0.23383   0.23683
     Eigenvalues ---    0.25642   0.26552   0.27935   0.28860   0.29658
     Eigenvalues ---    0.31732
 RFO step:  Lambda=-4.61071941D-04 EMin= 7.99890336D-02
 Quartic linear search produced a step of  0.62204.
 TrRot= -0.000254  0.000126 -0.000118 -0.000001  0.000063 -0.000001
 MatCor failed.
 Variable       Old X    -DE/DX   Delta X   Delta X   Delta X     New X
                                 (Linear)    (Quad)   (Total)
    X1       -1.22819   0.00119   0.00804   0.00085   0.00866  -1.21952
    Y1        5.00754  -0.00628  -0.05015  -0.00495  -0.05498   4.95256
    Z1        0.06878   0.00152   0.00803   0.00176   0.00975   0.07853
    X2       -1.42081   0.00115   0.01020  -0.00106   0.00909  -1.41171
    Y2       -3.03532   0.00619   0.04289   0.00732   0.05034  -2.98498
    Z2        3.45586  -0.00153  -0.02386   0.00269  -0.02121   3.43465
    X3        3.69235  -0.00048  -0.02959   0.01712  -0.01266   3.67968
    Y3       -2.49305   0.00088   0.02336  -0.01154   0.01194  -2.48112
    Z3        1.00647   0.00224  -0.00018   0.02095   0.02042   1.02689
    X4       -0.61107  -0.00053  -0.00029  -0.00892  -0.00973  -0.62080
    Y4        1.44870   0.00004  -0.00441   0.00877   0.00449   1.45319
    Z4       -4.39586   0.00609   0.04538   0.00807   0.05337  -4.34249
    X5        2.02246  -0.00733  -0.03681  -0.01424  -0.05106   1.97140
    Y5        1.88067  -0.00223  -0.01281  -0.00344  -0.01613   1.86454
    Z5        3.86319  -0.00480  -0.03212  -0.00829  -0.04065   3.82254
[...]
     X                      X     X               X                                                                                  
     X                      X     X                                                                                                  
     X                      X     X                                                                                                  
     X                      X     X                                                                                                  
     X                      X     X                                                                                                  
     X                      X     X                                                                                                  
     X                      X                                                                                                        
                            X                                                                                                        
                            X                                                                                                        
                            X                                                                                                        
                            X                                                                                                        
                            X                                                                                                        
                            X                                                                                                        
                            X                                                                                                        
 
 ***** Axes restored to original set *****
 -------------------------------------------------------------------
 Center     Atomic                   Forces (Hartrees/Bohr)
 Number     Number              X              Y              Z
 -------------------------------------------------------------------
      1       50           0.000047130   -0.000041211    0.000019932
      2       50           0.000029106    0.000055348    0.000039584
      3       83           0.000010682   -0.000021445   -0.000014755
      4       32          -0.000012354    0.000015991   -0.000107444
      5       32          -0.000010511   -0.000027845    0.000067091
      6       83           0.000011330    0.000027524   -0.000039350
      7       32          -0.000099354    0.000020089   -0.000045088
      8       83           0.000093130   -0.000053227    0.000048697
      9       83          -0.000069159    0.000024776    0.000031333
 -------------------------------------------------------------------
 Cartesian Forces:  Max     0.000107444 RMS     0.000048275
 Force constants in Cartesian coordinates: 
                1             2             3             4             5 
      1  0.531592D-01
      2 -0.529562D-02  0.685856D-01
      3 -0.121307D-01 -0.558958D-02  0.414721D-01
      4 -0.419713D-02  0.122124D-02 -0.166988D-02  0.452769D-01
      5 -0.233664D-02 -0.534955D-02  0.296719D-02 -0.367127D-02  0.607279D-01
      6 -0.415160D-03 -0.251066D-03 -0.238759D-02 -0.151232D-01 -0.113426D-01
      7  0.135568D-02 -0.437860D-03 -0.938175D-03 -0.301655D-01 -0.583726D-03
      8  0.684603D-02 -0.512792D-02 -0.350434D-03 -0.669723D-03 -0.286364D-02
      9 -0.284215D-02 -0.871375D-03 -0.200156D-02  0.143108D-01  0.181729D-02
     10  0.395396D-02  0.981124D-03  0.148546D-02 -0.253299D-02 -0.468540D-03
     11  0.122621D-02 -0.838301D-02 -0.702771D-02  0.115429D-02  0.682552D-03
     12  0.193131D-03 -0.590614D-02 -0.123481D-01 -0.958623D-03  0.515049D-03
     13 -0.329643D-02  0.440873D-02 -0.651546D-02 -0.245850D-02 -0.672044D-02
     14  0.677070D-02 -0.602624D-02  0.511540D-02 -0.839334D-02 -0.803729D-02
     15 -0.713720D-02  0.166897D-02 -0.665927D-02  0.506741D-03  0.127644D-02
     16 -0.260383D-02  0.219017D-02  0.108387D-02  0.283382D-02  0.487614D-03
     17 -0.144985D-02 -0.534836D-02 -0.280619D-02  0.265426D-03 -0.486156D-02
     18  0.698700D-03  0.196326D-02  0.135126D-02  0.163403D-02 -0.589608D-03
     19 -0.366655D-02 -0.463972D-02  0.931277D-02 -0.343923D-02  0.966219D-02
     20 -0.686563D-02 -0.114206D-01  0.155664D-01  0.125729D-01 -0.346880D-01
     21  0.107760D-01  0.131614D-01 -0.198894D-01  0.175949D-02 -0.288284D-02
     22 -0.113615D-01 -0.114454D-01 -0.140599D-02 -0.703627D-02  0.430613D-02
     23 -0.133145D-01 -0.193262D-01 -0.453064D-02  0.488653D-02 -0.308043D-02
     24 -0.717435D-03 -0.329768D-02  0.203093D-02 -0.476468D-02  0.740789D-02
     25 -0.333434D-01  0.130174D-01  0.107781D-01  0.171891D-02 -0.675308D-03
     26  0.144193D-01 -0.760371D-02 -0.334446D-02 -0.736602D-02 -0.252997D-02
     27  0.115747D-01 -0.877824D-03 -0.156841D-02  0.430536D-02  0.831215D-03
                6             7             8             9            10 
      6  0.460253D-01
      7  0.137652D-01  0.795196D-01
      8  0.272631D-02 -0.969993D-02  0.717064D-01
      9 -0.448550D-02  0.276522D-02 -0.157572D-02  0.418038D-01
     10  0.264053D-02 -0.105641D-02  0.913483D-03 -0.517948D-02  0.464388D-01
     11  0.715010D-02 -0.142677D-03 -0.216542D-02  0.449788D-02  0.112572D-01
     12 -0.338115D-02  0.608685D-03  0.256114D-03 -0.229018D-02  0.140410D-02
     13 -0.147382D-02 -0.772396D-02  0.103541D-01  0.489402D-02 -0.157489D-03
     14 -0.122383D-02  0.911536D-02 -0.187561D-01 -0.126477D-01  0.347992D-02
     15 -0.345403D-02  0.272858D-02 -0.124046D-01 -0.561279D-02 -0.537275D-02
     16  0.397534D-02 -0.293415D-01 -0.435072D-02 -0.185711D-01 -0.109890D-02
     17 -0.285847D-02 -0.478954D-02 -0.313445D-02 -0.907510D-02 -0.115250D-02
     18 -0.192027D-01 -0.208965D-01 -0.838516D-02 -0.174559D-01  0.130114D-02
     19  0.307711D-02 -0.388469D-02 -0.621275D-04  0.196581D-02  0.496420D-03
     20 -0.527536D-02  0.921777D-03 -0.252901D-02 -0.302832D-02 -0.137003D-02
     21 -0.162733D-02 -0.956874D-03 -0.436843D-03 -0.280330D-02  0.379806D-02
     22 -0.541564D-02 -0.528780D-02 -0.297561D-02 -0.113356D-02 -0.193749D-01
     23  0.986760D-02  0.425853D-02  0.222020D-02  0.471324D-02 -0.861811D-02
     24 -0.763879D-02  0.536802D-03  0.140766D-02  0.473466D-03  0.132753D-01
     25 -0.103029D-02 -0.341551D-02 -0.355499D-03  0.379042D-02 -0.266685D-01
     26  0.120735D-02  0.135806D-02 -0.393501D-01  0.161698D-01 -0.502253D-02
     27 -0.384818D-02  0.238714D-02  0.187626D-01 -0.762805D-02 -0.133523D-01
               11            12            13            14            15 
     11  0.495881D-01
     12 -0.865494D-02  0.676047D-01
     13  0.779040D-03  0.829189D-04  0.672400D-01
     14 -0.155620D-02  0.118826D-02 -0.382561D-02  0.404936D-01
     15 -0.415389D-02 -0.537398D-02 -0.120632D-02  0.104621D-01  0.601109D-01
     16  0.154906D-02  0.488586D-03 -0.825837D-03 -0.776387D-02 -0.263869D-02
     17 -0.339801D-01  0.868760D-02 -0.119316D-02  0.683586D-04  0.142564D-02
     18  0.105731D-01 -0.875686D-02  0.706894D-03 -0.549794D-02 -0.528776D-02
     19  0.494309D-04 -0.794467D-03 -0.405509D-01  0.408800D-02  0.738022D-02
     20 -0.155446D-02  0.107354D-02  0.677333D-03 -0.857912D-03 -0.113511D-02
     21 -0.917330D-03 -0.375325D-02  0.124606D-02 -0.375353D-03 -0.327915D-02
     22 -0.753681D-02  0.107562D-01 -0.440429D-02 -0.564832D-04 -0.183806D-02
     23 -0.102414D-02  0.538670D-02 -0.209072D-02 -0.604220D-02 -0.565107D-03
     24  0.378179D-02 -0.167984D-01 -0.678807D-02 -0.977951D-03 -0.461142D-02
     25 -0.833573D-02 -0.117806D-01 -0.782252D-02 -0.341467D-02  0.757748D-02
     26 -0.160734D-02 -0.254618D-02 -0.238926D-02  0.714004D-03  0.342552D-02
     27 -0.524902D-02 -0.149028D-01  0.905378D-02  0.395702D-02 -0.258325D-01
               16            17            18            19            20 
     16  0.547414D-01
     17 -0.117649D-01  0.731357D-01
     18  0.106586D-01  0.175032D-01  0.572083D-01
     19  0.435195D-03 -0.110034D-02 -0.130770D-03  0.624724D-01
     20  0.353168D-02 -0.130462D-02 -0.335603D-02 -0.693200D-02  0.570550D-01
     21  0.311297D-02 -0.993741D-03 -0.214514D-02 -0.132398D-01  0.442407D-02
     22 -0.224326D-01  0.205150D-01  0.628512D-02 -0.855806D-02 -0.198517D-02
     23  0.215088D-01 -0.190655D-01 -0.137100D-01 -0.276974D-02 -0.362085D-02
     24  0.535942D-02 -0.104114D-01 -0.548095D-02 -0.935939D-02 -0.102010D-01
     25 -0.170774D-02  0.669817D-03 -0.257130D-03 -0.330460D-02 -0.550828D-03
     26 -0.538781D-02 -0.550947D-02  0.149914D-02  0.170431D-02 -0.107953D-02
     27 -0.346895D-02 -0.147160D-02 -0.230199D-03  0.178848D-02  0.193180D-02
               21            22            23            24            25 
     21  0.647272D-01
     22 -0.719400D-02  0.836441D-01
     23 -0.111613D-01 -0.220002D-02  0.519610D-01
     24 -0.276728D-01  0.889105D-03  0.114100D-01  0.572021D-01
     25  0.698030D-03 -0.518864D-02 -0.166073D-02  0.156900D-02  0.797320D-01
     26 -0.818123D-03  0.137839D-02 -0.202187D-02  0.880621D-03  0.130556D-02
     27 -0.355693D-02 -0.943236D-03 -0.141055D-02  0.249577D-02 -0.113450D-01
               26            27 
     26  0.589879D-01
     27 -0.164737D-01  0.550713D-01
 Leave Link  716 at Tue Mar  6 17:22:16 2018, MaxMem=   536870912 cpu:         0.1
 (Enter /share/apps//mg09/l103.exe)

 GradGradGradGradGradGradGradGradGradGradGradGradGradGradGradGradGradGrad
 Berny optimization.
 Search for a local minimum.
 Step number   1 out of a maximum of    2
 All quantities printed in internal units (Hartrees-Bohrs-Radians)
 Second derivative matrix not updated -- analytic derivatives used.
 ITU=  0
     Eigenvalues ---    0.01299   0.02212   0.02600   0.03890   0.04458
     Eigenvalues ---    0.04560   0.05299   0.05628   0.05732   0.06247
     Eigenvalues ---    0.06827   0.07191   0.08366   0.09237   0.10022
     Eigenvalues ---    0.10534   0.11740   0.12198   0.13171   0.13886
     Eigenvalues ---    0.14216
 Angle between quadratic step and forces=  31.04 degrees.
 Linear search not attempted -- first point.
 TrRot= -0.000068  0.000003 -0.000022 -0.000002 -0.000015 -0.000002
 Variable       Old X    -DE/DX   Delta X   Delta X   Delta X     New X
                                 (Linear)    (Quad)   (Total)
    X1       -1.20069   0.00005   0.00000   0.00151   0.00146  -1.19923
    Y1        4.94234  -0.00004   0.00000  -0.00028  -0.00027   4.94206
    Z1        0.08106   0.00002   0.00000   0.00049   0.00045   0.08151
    X2       -1.40335   0.00003   0.00000   0.00152   0.00139  -1.40195
    Y2       -2.95804   0.00006   0.00000   0.00199   0.00200  -2.95604
    Z2        3.43919   0.00004   0.00000   0.00212   0.00208   3.44127
    X3        3.69977   0.00001   0.00000   0.00014   0.00004   3.69981
    Y3       -2.49661  -0.00002   0.00000  -0.00084  -0.00085  -2.49746
    Z3        1.05086  -0.00001   0.00000  -0.00100  -0.00097   1.04989
    X4       -0.64111  -0.00001   0.00000  -0.00095  -0.00095  -0.64206
    Y4        1.47367   0.00002   0.00000   0.00061   0.00061   1.47429
    Z4       -4.31108  -0.00011   0.00000  -0.00155  -0.00158  -4.31266
    X5        1.93975  -0.00001   0.00000  -0.00046  -0.00058   1.93917
    Y5        1.84435  -0.00003   0.00000  -0.00158  -0.00158   1.84277
    Z5        3.78858   0.00007   0.00000   0.00147   0.00147   3.79005
    X6       -0.65974   0.00001   0.00000   0.00050   0.00046  -0.65928
    Y6       -3.57955   0.00003   0.00000   0.00060   0.00061  -3.57894
    Z6       -2.45994  -0.00004   0.00000  -0.00134  -0.00137  -2.46131
    X7       -2.93492  -0.00010   0.00000  -0.00186  -0.00198  -2.93690
    Y7        1.98961   0.00002   0.00000   0.00138   0.00140   1.99100
    Z7        4.12679  -0.00005   0.00000  -0.00087  -0.00093   4.12586
    X8       -4.52786   0.00009   0.00000   0.00116   0.00111  -4.52675
    Y8        0.20290  -0.00005   0.00000  -0.00164  -0.00162   0.20128
    Z8       -0.71703   0.00005   0.00000   0.00077   0.00068  -0.71635
    X9        3.69341  -0.00007   0.00000  -0.00092  -0.00095   3.69245
    Y9        2.66936   0.00002   0.00000  -0.00029  -0.00030   2.66906
    Z9       -1.32541   0.00003   0.00000   0.00013   0.00016  -1.32524
         Item               Value     Threshold  Converged?
 Maximum Force            0.000107     0.000450     YES
 RMS     Force            0.000048     0.000300     YES
 Maximum Displacement     0.002081     0.001800     NO 
 RMS     Displacement     0.001182     0.001200     YES
 Predicted change in Energy=-6.649504D-07
 GradGradGradGradGradGradGradGradGradGradGradGradGradGradGradGradGradGrad

 Leave Link  103 at Tue Mar  6 17:22:16 2018, MaxMem=   536870912 cpu:         0.4
 (Enter /share/apps//mg09/l9999.exe)
 1\1\GINC-COMPUTE-0-11\Freq\RPBE1PBE\def2TZVP\Bi4Ge3Sn2\RODRIGO\06-Mar-
 2018\0\\#P Geom=AllCheck Guess=TCheck SCRF=Check GenChk RPBE1PBE/def2T
 ZVP Freq\\01Final_coords.xyz_11\\0,1\Sn,-0.6353803515,2.6153716083,0.0
 428967972\Sn,-0.7426186798,-1.5653277351,1.8199419917\Bi,1.9578323193,
 -1.3211467616,0.5560914518\Ge,-0.3392614041,0.779834791,-2.281325648\G
 e,1.026473081,0.9759901745,2.0048306515\Bi,-0.3491208777,-1.894215951,
 -1.3017448817\Ge,-1.5530906759,1.0528538136,2.1838029954\Bi,-2.3960384
 582,0.1073675765,-0.379435823\Bi,1.9544670468,1.4125624838,-0.70137453
 49\\Version=ES64L-G09RevD.01\State=1-A\HF=-7517.8262986\RMSD=8.767e-09
 \RMSF=4.828e-05\ZeroPoint=0.0058886\Thermal=0.0232993\Dipole=0.1408499
 ,-0.5081857,-0.2909367\DipoleDeriv=0.0641712,-0.0732419,0.0273653,-0.0
 383704,0.3590809,-0.0020253,0.002809,0.0007244,0.0151176,0.0688793,0.0
 673409,-0.0584247,0.0396625,0.1837446,-0.1509413,-0.0117628,-0.1035649
 ,0.1759224,0.0122351,-0.1053068,0.0410311,-0.0473457,-0.0847961,-0.008
 2262,0.0551242,-0.0289352,0.0064802,-0.1067316,-0.0508175,0.0807738,-0
 .0289857,-0.1264926,-0.0612319,0.0153331,-0.0302895,0.0632982,-0.05174
 13,0.0759657,0.1022501,0.0452627,-0.0503188,0.0076911,0.0415074,-0.026
 1233,-0.0224619,-0.0363295,0.080113,0.0094913,0.0252483,-0.0435175,0.1
 053069,-0.0299477,0.040507,-0.0852934,-0.0645326,-0.0857089,-0.1825645
 ,-0.0641969,-0.2039829,0.130041,-0.0876808,0.1114307,0.0127578,0.11983
 82,0.0047091,0.0783013,-0.0000279,-0.0244245,-0.0194454,0.0078208,-0.0
 20253,-0.0292635,-0.0057889,0.0869463,-0.0982237,0.068753,-0.0092932,-
 0.0011689,0.0067967,0.0565037,-0.1365575\Polar=373.6447735,-2.7740254,
 388.1909045,-6.2666345,-5.1080753,365.4153158\PG=C01 [X(Bi4Ge3Sn2)]\NI
 mag=0\\0.05315921,-0.00529562,0.06858556,-0.01213065,-0.00558958,0.041
 47212,-0.00419713,0.00122124,-0.00166988,0.04527686,-0.00233664,-0.005
 34955,0.00296719,-0.00367127,0.06072792,-0.00041516,-0.00025107,-0.002
 38759,-0.01512324,-0.01134263,0.04602531,0.00135568,-0.00043786,-0.000
 93817,-0.03016546,-0.00058373,0.01376516,0.07951963,0.00684603,-0.0051
 2792,-0.00035043,-0.00066972,-0.00286364,0.00272631,-0.00969993,0.0717
 0643,-0.00284215,-0.00087137,-0.00200156,0.01431081,0.00181729,-0.0044
 8550,0.00276522,-0.00157572,0.04180381,0.00395396,0.00098112,0.0014854
 6,-0.00253299,-0.00046854,0.00264053,-0.00105641,0.00091348,-0.0051794
 8,0.04643880,0.00122621,-0.00838301,-0.00702771,0.00115429,0.00068255,
 0.00715010,-0.00014268,-0.00216542,0.00449788,0.01125718,0.04958809,0.
 00019313,-0.00590614,-0.01234810,-0.00095862,0.00051505,-0.00338115,0.
 00060869,0.00025611,-0.00229018,0.00140410,-0.00865494,0.06760467,-0.0
 0329643,0.00440873,-0.00651546,-0.00245850,-0.00672044,-0.00147382,-0.
 00772396,0.01035409,0.00489402,-0.00015749,0.00077904,0.00008292,0.067
 23996,0.00677070,-0.00602624,0.00511540,-0.00839334,-0.00803729,-0.001
 22383,0.00911536,-0.01875613,-0.01264772,0.00347992,-0.00155620,0.0011
 8826,-0.00382561,0.04049362,-0.00713720,0.00166897,-0.00665927,0.00050
 674,0.00127644,-0.00345403,0.00272858,-0.01240457,-0.00561279,-0.00537
 275,-0.00415389,-0.00537398,-0.00120632,0.01046212,0.06011088,-0.00260
 383,0.00219017,0.00108387,0.00283382,0.00048761,0.00397534,-0.02934148
 ,-0.00435072,-0.01857109,-0.00109890,0.00154906,0.00048859,-0.00082584
 ,-0.00776387,-0.00263869,0.05474138,-0.00144985,-0.00534836,-0.0028061
 9,0.00026543,-0.00486156,-0.00285847,-0.00478954,-0.00313445,-0.009075
 10,-0.00115250,-0.03398007,0.00868760,-0.00119316,0.00006836,0.0014256
 4,-0.01176488,0.07313570,0.00069870,0.00196326,0.00135126,0.00163403,-
 0.00058961,-0.01920274,-0.02089655,-0.00838516,-0.01745589,0.00130114,
 0.01057311,-0.00875686,0.00070689,-0.00549794,-0.00528776,0.01065856,0
 .01750321,0.05720828,-0.00366655,-0.00463972,0.00931277,-0.00343923,0.
 00966219,0.00307711,-0.00388469,-0.00006213,0.00196581,0.00049642,0.00
 004943,-0.00079447,-0.04055093,0.00408800,0.00738022,0.00043520,-0.001
 10034,-0.00013077,0.06247244,-0.00686563,-0.01142057,0.01556642,0.0125
 7286,-0.03468803,-0.00527536,0.00092178,-0.00252901,-0.00302832,-0.001
 37003,-0.00155446,0.00107354,0.00067733,-0.00085791,-0.00113511,0.0035
 3168,-0.00130462,-0.00335603,-0.00693200,0.05705498,0.01077603,0.01316
 142,-0.01988938,0.00175949,-0.00288284,-0.00162733,-0.00095687,-0.0004
 3684,-0.00280330,0.00379806,-0.00091733,-0.00375325,0.00124606,-0.0003
 7535,-0.00327915,0.00311297,-0.00099374,-0.00214514,-0.01323976,0.0044
 2407,0.06472725,-0.01136153,-0.01144544,-0.00140599,-0.00703627,0.0043
 0613,-0.00541564,-0.00528780,-0.00297561,-0.00113356,-0.01937488,-0.00
 753681,0.01075625,-0.00440429,-0.00005648,-0.00183806,-0.02243260,0.02
 051503,0.00628512,-0.00855806,-0.00198517,-0.00719400,0.08364407,-0.01
 331449,-0.01932620,-0.00453064,0.00488653,-0.00308043,0.00986760,0.004
 25853,0.00222020,0.00471324,-0.00861811,-0.00102414,0.00538670,-0.0020
 9072,-0.00604220,-0.00056511,0.02150875,-0.01906553,-0.01371000,-0.002
 76974,-0.00362085,-0.01116126,-0.00220002,0.05196102,-0.00071743,-0.00
 329768,0.00203093,-0.00476468,0.00740789,-0.00763879,0.00053680,0.0014
 0766,0.00047347,0.01327525,0.00378179,-0.01679836,-0.00678807,-0.00097
 795,-0.00461142,0.00535942,-0.01041135,-0.00548095,-0.00935939,-0.0102
 0099,-0.02767278,0.00088911,0.01141002,0.05720213,-0.03334338,0.013017
 39,0.01077806,0.00171891,-0.00067531,-0.00103029,-0.00341551,-0.000355
 50,0.00379042,-0.02666851,-0.00833573,-0.01178058,-0.00782252,-0.00341
 467,0.00757748,-0.00170774,0.00066982,-0.00025713,-0.00330460,-0.00055
 083,0.00069803,-0.00518864,-0.00166073,0.00156900,0.07973198,0.0144193
 0,-0.00760371,-0.00334446,-0.00736602,-0.00252997,0.00120735,0.0013580
 6,-0.03935006,0.01616983,-0.00502253,-0.00160734,-0.00254618,-0.002389
 26,0.00071400,0.00342552,-0.00538781,-0.00550947,0.00149914,0.00170431
 ,-0.00107953,-0.00081812,0.00137839,-0.00202187,0.00088062,0.00130556,
 0.05898794,0.01157474,-0.00087782,-0.00156841,0.00430536,0.00083122,-0
 .00384818,0.00238714,0.01876264,-0.00762805,-0.01335232,-0.00524902,-0
 .01490279,0.00905378,0.00395702,-0.02583249,-0.00346895,-0.00147160,-0
 .00023020,0.00178848,0.00193180,-0.00355693,-0.00094324,-0.00141055,0.
 00249577,-0.01134499,-0.01647369,0.05507129\\-0.00004713,0.00004121,-0
 .00001993,-0.00002911,-0.00005535,-0.00003958,-0.00001068,0.00002145,0
 .00001475,0.00001235,-0.00001599,0.00010744,0.00001051,0.00002784,-0.0
 0006709,-0.00001133,-0.00002752,0.00003935,0.00009935,-0.00002009,0.00
 004509,-0.00009313,0.00005323,-0.00004870,0.00006916,-0.00002478,-0.00
 003133\\\@


 SOME THINGS ARE EASY, THEY ARE ONLY HARD TO DO.
            -- A. EINSTEIN TO J. O. HIRSCHFELDER
 THE ONLY TROUBLE WITH A SURE THING IS THE UNCERTAINTY.
     -- FROM A TEABAG (BELONGING TO W.H.?)
 Job cpu time:       0 days  7 hours 44 minutes 43.3 seconds.
 File lengths (MBytes):  RWF=    299 Int=      0 D2E=      0 Chk=     16 Scr=      1
 Normal termination of Gaussian 09 at Tue Mar  6 17:22:18 2018.
