 Entering Gaussian System, Link 0=/share/apps/mg09/g09
 Initial command:
 /share/apps//mg09/l1.exe "/state/partition1/gauss_tmp/Gau-6133.inp" -scrdir="/state/partition1/gauss_tmp/"
 Entering Link 1 = /share/apps//mg09/l1.exe PID=      6155.
  
 Copyright (c) 1988,1990,1992,1993,1995,1998,2003,2009,2013,
            Gaussian, Inc.  All Rights Reserved.
  
 This is part of the Gaussian(R) 09 program.  It is based on
 the Gaussian(R) 03 system (copyright 2003, Gaussian, Inc.),
 the Gaussian(R) 98 system (copyright 1998, Gaussian, Inc.),
 the Gaussian(R) 94 system (copyright 1995, Gaussian, Inc.),
 the Gaussian 92(TM) system (copyright 1992, Gaussian, Inc.),
 the Gaussian 90(TM) system (copyright 1990, Gaussian, Inc.),
 the Gaussian 88(TM) system (copyright 1988, Gaussian, Inc.),
 the Gaussian 86(TM) system (copyright 1986, Carnegie Mellon
 University), and the Gaussian 82(TM) system (copyright 1983,
 Carnegie Mellon University). Gaussian is a federally registered
 trademark of Gaussian, Inc.
  
 This software contains proprietary and confidential information,
 including trade secrets, belonging to Gaussian, Inc.
  
 This software is provided under written license and may be
 used, copied, transmitted, or stored only in accord with that
 written license.
  
 The following legend is applicable only to US Government
 contracts under FAR:
  
                    RESTRICTED RIGHTS LEGEND
  
 Use, reproduction and disclosure by the US Government is
 subject to restrictions as set forth in subparagraphs (a)
 and (c) of the Commercial Computer Software - Restricted
 Rights clause in FAR 52.227-19.
  
 Gaussian, Inc.
 340 Quinnipiac St., Bldg. 40, Wallingford CT 06492
  
  
 ---------------------------------------------------------------
 Warning -- This program may not be used in any manner that
 competes with the business of Gaussian, Inc. or will provide
 assistance to any competitor of Gaussian, Inc.  The licensee
 of this program is prohibited from giving any competitor of
 Gaussian, Inc. access to this program.  By using this program,
 the user acknowledges that Gaussian, Inc. is engaged in the
 business of creating and licensing software in the field of
 computational chemistry and represents and warrants to the
 licensee that it is not a competitor of Gaussian, Inc. and that
 it will not use this program in any manner prohibited above.
 ---------------------------------------------------------------
  

 Cite this work as:
 Gaussian 09, Revision D.01,
 M. J. Frisch, G. W. Trucks, H. B. Schlegel, G. E. Scuseria, 
 M. A. Robb, J. R. Cheeseman, G. Scalmani, V. Barone, B. Mennucci, 
 G. A. Petersson, H. Nakatsuji, M. Caricato, X. Li, H. P. Hratchian, 
 A. F. Izmaylov, J. Bloino, G. Zheng, J. L. Sonnenberg, M. Hada, 
 M. Ehara, K. Toyota, R. Fukuda, J. Hasegawa, M. Ishida, T. Nakajima, 
 Y. Honda, O. Kitao, H. Nakai, T. Vreven, J. A. Montgomery, Jr., 
 J. E. Peralta, F. Ogliaro, M. Bearpark, J. J. Heyd, E. Brothers, 
 K. N. Kudin, V. N. Staroverov, T. Keith, R. Kobayashi, J. Normand, 
 K. Raghavachari, A. Rendell, J. C. Burant, S. S. Iyengar, J. Tomasi, 
 M. Cossi, N. Rega, J. M. Millam, M. Klene, J. E. Knox, J. B. Cross, 
 V. Bakken, C. Adamo, J. Jaramillo, R. Gomperts, R. E. Stratmann, 
 O. Yazyev, A. J. Austin, R. Cammi, C. Pomelli, J. W. Ochterski, 
 R. L. Martin, K. Morokuma, V. G. Zakrzewski, G. A. Voth, 
 P. Salvador, J. J. Dannenberg, S. Dapprich, A. D. Daniels, 
 O. Farkas, J. B. Foresman, J. V. Ortiz, J. Cioslowski, 
 and D. J. Fox, Gaussian, Inc., Wallingford CT, 2013.
 
 ******************************************
 Gaussian 09:  ES64L-G09RevD.01 24-Apr-2013
                 6-Mar-2018 
 ******************************************
 %NProcShared=4
 Will use up to    4 processors via shared memory.
 %LindaWorkers=compute-0-11
 %chk=Isomer_04.chk
 %NProc=4
 Will use up to    4 processors via shared memory.
 %mem=4GB
 SetLPE:  input flags=" -vv -opt "Tsnet.Node.lindarsharg: ssh" "
 SetLPE:    new flags=" -vv -opt "Tsnet.Node.lindarsharg: ssh"  -nodelist 'compute-0-11.local'"
 Will use up to    1 processors via Linda.
 ----------------------------------------------------------------------
 #p PBE1PBE/Def2TZVP scf=(maxcycle=768) opt=(cartesian,maxcycle=512) fr
 eq
 ----------------------------------------------------------------------
 1/6=512,10=7,14=-1,18=10,26=3,38=1/1,3;
 2/12=2,17=6,18=5,29=2,40=1/2;
 3/5=44,7=101,11=2,16=1,25=1,30=1,71=1,74=-13/1,2,3;
 4//1;
 5/5=2,7=768,38=5/2;
 6/7=2,8=2,9=2,10=2,28=1/1;
 7/7=1,29=1/1,2,3,16;
 1/6=512,10=7,14=-1,18=10,26=3/3(2);
 2/29=1/2;
 99/12=1/99;
 2/29=1/2;
 3/5=44,7=101,11=2,16=1,25=1,30=1,71=1,74=-13/1,2,3;
 4/5=5,16=3,69=1/1;
 5/5=2,7=768,38=5/2;
 7/7=1/1,2,3,16;
 1/6=512,14=-1,18=10,26=3/3(-5);
 2/29=1/2;
 6/7=2,8=2,9=2,10=2,19=2,28=1/1;
 99/9=1,12=1/99;
 Leave Link    1 at Tue Mar  6 11:56:29 2018, MaxMem=   536870912 cpu:         0.7
 (Enter /share/apps//mg09/l101.exe)
 ---------------------
 01Final_coords.xyz_04
 ---------------------
 Symbolic Z-matrix:
 Charge =  0 Multiplicity = 1
 32                    0.53686   1.08522   2.38661 
 83                    0.87578   2.37558  -0.24855 
 32                   -0.69061   0.80058  -2.14145 
 83                    1.56108  -1.4336    1.39705 
 83                    1.9556   -0.21375  -1.3913 
 50                   -0.17239  -2.38484  -0.92422 
 32                   -1.2561   -1.02556   1.96614 
 83                   -2.61805  -0.70204  -0.60285 
 50                   -1.87082   1.79082   0.91277 
 
 NAtoms=      9 NQM=        9 NQMF=       0 NMMI=      0 NMMIF=      0
                NMic=       0 NMicF=      0.
                    Isotopes and Nuclear Properties:
 (Nuclear quadrupole moments (NQMom) in fm**2, nuclear magnetic moments (NMagM)
  in nuclear magnetons)

  Atom         1           2           3           4           5           6           7           8           9
 IAtWgt=          74         209          74         209         209         118          74         209         118
 AtmWgt=  73.9211788 208.9804000  73.9211788 208.9804000 208.9804000 117.9018000  73.9211788 208.9804000 117.9018000
 NucSpn=           0           9           0           9           9           0           0           9           0
 AtZEff=   0.0000000   0.0000000   0.0000000   0.0000000   0.0000000   0.0000000   0.0000000   0.0000000   0.0000000
 NQMom=    0.0000000 -51.6000000   0.0000000 -51.6000000 -51.6000000   0.0000000   0.0000000 -51.6000000   0.0000000
 NMagM=    0.0000000   4.1106000   0.0000000   4.1106000   4.1106000   0.0000000   0.0000000   4.1106000   0.0000000
 AtZNuc=  32.0000000  83.0000000  32.0000000  83.0000000  83.0000000  50.0000000  32.0000000  83.0000000  50.0000000
 Leave Link  101 at Tue Mar  6 11:56:40 2018, MaxMem=   536870912 cpu:         0.3
 (Enter /share/apps//mg09/l103.exe)

 GradGradGradGradGradGradGradGradGradGradGradGradGradGradGradGradGradGrad
 Berny optimization.
 Initialization pass.
 No Z-matrix variables, so optimization will use Cartesian coordinates.
 Trust Radius=3.00D-01 FncErr=1.00D-07 GrdErr=1.00D-06
 Number of steps in this run=    100 maximum allowed number of steps=    100.
 GradGradGradGradGradGradGradGradGradGradGradGradGradGradGradGradGradGrad

 Leave Link  103 at Tue Mar  6 11:56:55 2018, MaxMem=   536870912 cpu:         0.1
 (Enter /share/apps//mg09/l202.exe)
 ---------------------------------------------------------------------------------------------------
                            Z-MATRIX (ANGSTROMS AND DEGREES)
   CD    Cent   Atom    N1       Length/X        N2       Alpha/Y        N3        Beta/Z          J
 ---------------------------------------------------------------------------------------------------
      1      1  Ge       0   0.536856          1.085215          2.386611
      2      2  Bi       0   0.875778          2.375577         -0.248551
      3      3  Ge       0  -0.690611          0.800579         -2.141453
      4      4  Bi       0   1.561078         -1.433603          1.397049
      5      5  Bi       0   1.955601         -0.213749         -1.391297
      6      6  Sn       0  -0.172389         -2.384844         -0.924220
      7      7  Ge       0  -1.256098         -1.025559          1.966144
      8      8  Bi       0  -2.618053         -0.702038         -0.602851
      9      9  Sn       0  -1.870815          1.790823          0.912766
 ---------------------------------------------------------------------------------------------------
                         Z-Matrix orientation:                         
 ---------------------------------------------------------------------
 Center     Atomic      Atomic             Coordinates (Angstroms)
 Number     Number       Type             X           Y           Z
 ---------------------------------------------------------------------
      1         32           0        0.536856    1.085215    2.386611
      2         83           0        0.875778    2.375577   -0.248551
      3         32           0       -0.690611    0.800579   -2.141453
      4         83           0        1.561078   -1.433603    1.397049
      5         83           0        1.955601   -0.213749   -1.391297
      6         50           0       -0.172389   -2.384844   -0.924220
      7         32           0       -1.256098   -1.025559    1.966144
      8         83           0       -2.618053   -0.702038   -0.602851
      9         50           0       -1.870815    1.790823    0.912766
 ---------------------------------------------------------------------
                    Distance matrix (angstroms):
                    1          2          3          4          5
     1  Ge   0.000000
     2  Bi   2.953639   0.000000
     3  Ge   4.700112   2.918436   0.000000
     4  Bi   2.893563   4.205650   4.752123   0.000000
     5  Bi   4.239426   3.029273   2.931558   3.068968   0.000000
     6  Sn   4.848292   4.921056   3.449222   3.049272   3.075737
     7  Ge   2.801222   4.584484   4.530663   2.902904   4.716615
     8  Bi   4.699426   4.669486   2.887938   4.690408   4.666732
     9  Sn   2.909808   3.038810   3.420777   4.733851   4.895761
                    6          7          8          9
     6  Sn   0.000000
     7  Ge   3.372875   0.000000
     8  Bi   2.986032   2.925632   0.000000
     9  Sn   4.867788   3.069119   3.011613   0.000000
 Stoichiometry    Bi4Ge3Sn2
 Framework group  C1[X(Bi4Ge3Sn2)]
 Deg. of freedom    21
 Full point group                 C1      NOp   1
 Largest Abelian subgroup         C1      NOp   1
 Largest concise Abelian subgroup C1      NOp   1
                         Standard orientation:                         
 ---------------------------------------------------------------------
 Center     Atomic      Atomic             Coordinates (Angstroms)
 Number     Number       Type             X           Y           Z
 ---------------------------------------------------------------------
      1         32           0        0.536856    1.085215    2.386611
      2         83           0        0.875779    2.375577   -0.248551
      3         32           0       -0.690611    0.800579   -2.141453
      4         83           0        1.561077   -1.433604    1.397049
      5         83           0        1.955601   -0.213750   -1.391297
      6         50           0       -0.172390   -2.384844   -0.924220
      7         32           0       -1.256099   -1.025558    1.966144
      8         83           0       -2.618053   -0.702037   -0.602851
      9         50           0       -1.870814    1.790824    0.912766
 ---------------------------------------------------------------------
 Rotational constants (GHZ):      0.0985607      0.0896759      0.0780749
 Leave Link  202 at Tue Mar  6 11:56:57 2018, MaxMem=   536870912 cpu:         0.0
 (Enter /share/apps//mg09/l301.exe)
 Standard basis: def2TZVP (5D, 7F)
 Ernie: Thresh=  0.10000D-02 Tol=  0.10000D-05 Strict=F.
 There are   519 symmetry adapted cartesian basis functions of A   symmetry.
 There are   444 symmetry adapted basis functions of A   symmetry.
   444 basis functions,   963 primitive gaussians,   519 cartesian basis functions
   116 alpha electrons      116 beta electrons
       nuclear repulsion energy      3530.7673094542 Hartrees.
 IExCor= 1009 DFT=T Ex+Corr=PBE1PBE ExCW=0 ScaHFX=  0.250000
 ScaDFX=  0.750000  0.750000  1.000000  1.000000 ScalE2=  1.000000  1.000000
 IRadAn=      0 IRanWt=     -1 IRanGd=            0 ICorTp=0 IEmpDi=  4
 NAtoms=    9 NActive=    9 NUniq=    9 SFac= 1.00D+00 NAtFMM=   60 NAOKFM=F Big=F
 Integral buffers will be    131072 words long.
 Raffenetti 2 integral format.
 Two-electron integral symmetry is turned on.
 Leave Link  301 at Tue Mar  6 11:57:11 2018, MaxMem=   536870912 cpu:         0.3
 (Enter /share/apps//mg09/l302.exe)
 NPDir=0 NMtPBC=     1 NCelOv=     1 NCel=       1 NClECP=     1 NCelD=      1
         NCelK=      1 NCelE2=     1 NClLst=     1 CellRange=     0.0.
 One-electron integrals computed using PRISM.
   1 Symmetry operations used in ECPInt.
 ECPInt:  NShTT=   10440 NPrTT=   41973 LenC2=    9659 LenP2D=   27453.
 LDataN:  DoStor=T MaxTD1= 8 Len=  415
 NBasis=   444 RedAO= T EigKep=  1.63D-03  NBF=   444
 NBsUse=   444 1.00D-06 EigRej= -1.00D+00 NBFU=   444
 Precomputing XC quadrature grid using
 IXCGrd= 4 IRadAn=           0 IRanWt=          -1 IRanGd=           0 AccXCQ= 0.00D+00.
 Defaulting to unpruned grid for atomic number  83.
 Defaulting to unpruned grid for atomic number  83.
 Defaulting to unpruned grid for atomic number  83.
 Generated NRdTot=       0 NPtTot=           0 NUsed=           0 NTot=          32
 NSgBfM=   501   501   501   501   501 MxSgAt=     9 MxSgA2=     9.
 Leave Link  302 at Tue Mar  6 11:57:31 2018, MaxMem=   536870912 cpu:        39.1
 (Enter /share/apps//mg09/l303.exe)
 DipDrv:  MaxL=1.
 Leave Link  303 at Tue Mar  6 11:57:46 2018, MaxMem=   536870912 cpu:         0.3
 (Enter /share/apps//mg09/l401.exe)
 ExpMin= 4.62D-02 ExpMax= 4.66D+05 ExpMxC= 4.50D+03 IAcc=2 IRadAn=         4 AccDes= 0.00D+00
 Harris functional with IExCor= 1009 and IRadAn=       4 diagonalized for initial guess.
 HarFok:  IExCor= 1009 AccDes= 0.00D+00 IRadAn=         4 IDoV= 1 UseB2=F ITyADJ=14
 ICtDFT=  3500011 ScaDFX=  1.000000  1.000000  1.000000  1.000000
 Defaulting to unpruned grid for atomic number  83.
 Defaulting to unpruned grid for atomic number  83.
 Defaulting to unpruned grid for atomic number  83.
 Defaulting to unpruned grid for atomic number  83.
 FoFCou: FMM=F IPFlag=           0 FMFlag=      100000 FMFlg1=           0
         NFxFlg=           0 DoJE=T BraDBF=F KetDBF=T FulRan=T
         wScrn=  0.000000 ICntrl=     500 IOpCl=  0 I1Cent=   200000004 NGrid=           0
         NMat0=    1 NMatS0=      1 NMatT0=    0 NMatD0=    1 NMtDS0=    0 NMtDT0=    0
 Petite list used in FoFCou.
 Harris En= -7518.60296553363    
 JPrj=0 DoOrth=F DoCkMO=F.
 Leave Link  401 at Tue Mar  6 11:57:58 2018, MaxMem=   536870912 cpu:        14.4
 (Enter /share/apps//mg09/l502.exe)
 Closed shell SCF:
 Using DIIS extrapolation, IDIIS=  1040.
 Integral symmetry usage will be decided dynamically.
 IVT=     1410107 IEndB=     1410107 NGot=   536870912 MDV=   536322046
 LenX=   536322046 LenY=   536052166
 Requested convergence on RMS density matrix=1.00D-08 within 768 cycles.
 Requested convergence on MAX density matrix=1.00D-06.
 Requested convergence on             energy=1.00D-06.
 No special actions if energy rises.
 Fock matrices will be formed incrementally for  20 cycles.

 Cycle   1  Pass 1  IDiag  1:
 FoFJK:  IHMeth= 1 ICntrl=       0 DoSepK=F KAlg= 0 I1Cent=   0 FoldK=F
 IRaf= 880000000 NMat=   1 IRICut=       1 DoRegI=T DoRafI=F ISym2E= 0.
 FoFCou: FMM=F IPFlag=           0 FMFlag=      100000 FMFlg1=           0
         NFxFlg=           0 DoJE=F BraDBF=F KetDBF=F FulRan=T
         wScrn=  0.000000 ICntrl=       0 IOpCl=  0 I1Cent=           0 NGrid=           0
         NMat0=    1 NMatS0=      1 NMatT0=    0 NMatD0=    1 NMtDS0=    0 NMtDT0=    0
 Symmetry not used in FoFCou.
 Defaulting to unpruned grid for atomic number  83.
 Defaulting to unpruned grid for atomic number  83.
 Defaulting to unpruned grid for atomic number  83.
 Defaulting to unpruned grid for atomic number  83.
 E= -7517.27386483749    
 DIIS: error= 2.71D-02 at cycle   1 NSaved=   1.
 NSaved= 1 IEnMin= 1 EnMin= -7517.27386483749     IErMin= 1 ErrMin= 2.71D-02
 ErrMax= 2.71D-02  0.00D+00 EMaxC= 1.00D-01 BMatC= 1.45D+00 BMatP= 1.45D+00
 IDIUse=3 WtCom= 7.29D-01 WtEn= 2.71D-01
 Coeff-Com:  0.100D+01
 Coeff-En:   0.100D+01
 Coeff:      0.100D+01
 Gap=     0.123 Goal=   None    Shift=    0.000
 GapD=    0.123 DampG=1.000 DampE=0.500 DampFc=0.5000 IDamp=-1.
 Damping current iteration by 5.00D-01
 RMSDP=4.69D-03 MaxDP=1.99D-01              OVMax= 4.43D-01

 Cycle   2  Pass 1  IDiag  1:
 RMSU=  2.34D-03    CP:  1.00D+00
 E= -7517.35819360934     Delta-E=       -0.084328771845 Rises=F Damp=T
 DIIS: error= 8.69D-03 at cycle   2 NSaved=   2.
 NSaved= 2 IEnMin= 2 EnMin= -7517.35819360934     IErMin= 2 ErrMin= 8.69D-03
 ErrMax= 8.69D-03  0.00D+00 EMaxC= 1.00D-01 BMatC= 1.78D-01 BMatP= 1.45D+00
 IDIUse=3 WtCom= 9.13D-01 WtEn= 8.69D-02
 Coeff-Com:  0.675D-01 0.932D+00
 Coeff-En:   0.425D+00 0.575D+00
 Coeff:      0.985D-01 0.901D+00
 Gap=     0.193 Goal=   None    Shift=    0.000
 RMSDP=2.70D-03 MaxDP=1.66D-01 DE=-8.43D-02 OVMax= 4.58D-01

 Cycle   3  Pass 1  IDiag  1:
 RMSU=  2.21D-03    CP:  1.01D+00  3.43D-01
 E= -7516.95913875585     Delta-E=        0.399054853484 Rises=F Damp=F
 DIIS: error= 2.15D-02 at cycle   3 NSaved=   3.
 NSaved= 3 IEnMin= 2 EnMin= -7517.35819360934     IErMin= 2 ErrMin= 8.69D-03
 ErrMax= 2.15D-02  0.00D+00 EMaxC= 1.00D-01 BMatC= 7.10D-01 BMatP= 1.78D-01
 IDIUse=2 WtCom= 0.00D+00 WtEn= 1.00D+00
 EnCoef did     6 forward-backward iterations
 Coeff-En:   0.999D-01 0.614D+00 0.286D+00
 Coeff:      0.999D-01 0.614D+00 0.286D+00
 Gap=     0.198 Goal=   None    Shift=    0.000
 RMSDP=2.70D-03 MaxDP=1.29D-01 DE= 3.99D-01 OVMax= 3.20D-01

 Cycle   4  Pass 1  IDiag  1:
 RMSU=  8.89D-04    CP:  1.00D+00  9.62D-01  5.46D-02
 E= -7517.70200123415     Delta-E=       -0.742862478293 Rises=F Damp=F
 DIIS: error= 9.33D-03 at cycle   4 NSaved=   4.
 NSaved= 4 IEnMin= 4 EnMin= -7517.70200123415     IErMin= 2 ErrMin= 8.69D-03
 ErrMax= 9.33D-03  0.00D+00 EMaxC= 1.00D-01 BMatC= 8.96D-02 BMatP= 1.78D-01
 IDIUse=3 WtCom= 9.07D-01 WtEn= 9.33D-02
 Coeff-Com:  0.280D-01 0.192D+00 0.231D+00 0.549D+00
 Coeff-En:   0.000D+00 0.000D+00 0.189D+00 0.811D+00
 Coeff:      0.254D-01 0.174D+00 0.227D+00 0.573D+00
 Gap=     0.133 Goal=   None    Shift=    0.000
 RMSDP=1.14D-03 MaxDP=5.89D-02 DE=-7.43D-01 OVMax= 1.17D-01

 Cycle   5  Pass 1  IDiag  1:
 RMSU=  6.44D-04    CP:  1.00D+00  7.33D-01  3.33D-01  4.99D-01
 E= -7517.78894429500     Delta-E=       -0.086943060851 Rises=F Damp=F
 DIIS: error= 4.47D-03 at cycle   5 NSaved=   5.
 NSaved= 5 IEnMin= 5 EnMin= -7517.78894429500     IErMin= 5 ErrMin= 4.47D-03
 ErrMax= 4.47D-03  0.00D+00 EMaxC= 1.00D-01 BMatC= 2.77D-02 BMatP= 8.96D-02
 IDIUse=3 WtCom= 9.55D-01 WtEn= 4.47D-02
 Coeff-Com:  0.296D-01-0.640D-01 0.710D-01 0.457D+00 0.507D+00
 Coeff-En:   0.000D+00 0.000D+00 0.000D+00 0.261D+00 0.739D+00
 Coeff:      0.283D-01-0.611D-01 0.678D-01 0.448D+00 0.517D+00
 Gap=     0.122 Goal=   None    Shift=    0.000
 RMSDP=4.35D-04 MaxDP=2.19D-02 DE=-8.69D-02 OVMax= 4.35D-02

 Cycle   6  Pass 1  IDiag  1:
 RMSU=  1.47D-04    CP:  1.00D+00  7.41D-01  2.34D-01  7.34D-01  5.77D-01
 E= -7517.81696510111     Delta-E=       -0.028020806112 Rises=F Damp=F
 DIIS: error= 9.77D-04 at cycle   6 NSaved=   6.
 NSaved= 6 IEnMin= 6 EnMin= -7517.81696510111     IErMin= 6 ErrMin= 9.77D-04
 ErrMax= 9.77D-04  0.00D+00 EMaxC= 1.00D-01 BMatC= 1.37D-03 BMatP= 2.77D-02
 IDIUse=3 WtCom= 9.90D-01 WtEn= 9.77D-03
 Coeff-Com:  0.128D-01-0.381D-01 0.122D-01 0.161D+00 0.269D+00 0.583D+00
 Coeff-En:   0.000D+00 0.000D+00 0.000D+00 0.000D+00 0.000D+00 0.100D+01
 Coeff:      0.127D-01-0.377D-01 0.121D-01 0.160D+00 0.266D+00 0.587D+00
 Gap=     0.121 Goal=   None    Shift=    0.000
 RMSDP=1.51D-04 MaxDP=7.04D-03 DE=-2.80D-02 OVMax= 1.81D-02

 Cycle   7  Pass 1  IDiag  1:
 RMSU=  1.07D-04    CP:  1.00D+00  7.48D-01  2.47D-01  7.39D-01  6.35D-01
                    CP:  3.53D-01
 E= -7517.81696402061     Delta-E=        0.000001080505 Rises=F Damp=F
 DIIS: error= 8.31D-04 at cycle   7 NSaved=   7.
 NSaved= 7 IEnMin= 6 EnMin= -7517.81696510111     IErMin= 7 ErrMin= 8.31D-04
 ErrMax= 8.31D-04  0.00D+00 EMaxC= 1.00D-01 BMatC= 9.43D-04 BMatP= 1.37D-03
 IDIUse=3 WtCom= 9.92D-01 WtEn= 8.31D-03
 Coeff-Com:  0.700D-02-0.213D-01 0.109D-02 0.719D-01 0.148D+00 0.471D+00
 Coeff-Com:  0.322D+00
 Coeff-En:   0.000D+00 0.000D+00 0.000D+00 0.000D+00 0.000D+00 0.500D+00
 Coeff-En:   0.500D+00
 Coeff:      0.694D-02-0.211D-01 0.108D-02 0.713D-01 0.147D+00 0.472D+00
 Coeff:      0.323D+00
 Gap=     0.121 Goal=   None    Shift=    0.000
 RMSDP=9.68D-05 MaxDP=3.56D-03 DE= 1.08D-06 OVMax= 1.22D-02

 Cycle   8  Pass 1  IDiag  1:
 RMSU=  4.18D-05    CP:  1.00D+00  7.47D-01  2.51D-01  7.36D-01  6.38D-01
                    CP:  6.89D-01  3.36D-01
 E= -7517.81810504398     Delta-E=       -0.001141023371 Rises=F Damp=F
 DIIS: error= 2.45D-04 at cycle   8 NSaved=   8.
 NSaved= 8 IEnMin= 8 EnMin= -7517.81810504398     IErMin= 8 ErrMin= 2.45D-04
 ErrMax= 2.45D-04  0.00D+00 EMaxC= 1.00D-01 BMatC= 7.54D-05 BMatP= 9.43D-04
 IDIUse=3 WtCom= 9.98D-01 WtEn= 2.45D-03
 Coeff-Com:  0.242D-02-0.670D-02-0.179D-02 0.184D-01 0.464D-01 0.205D+00
 Coeff-Com:  0.235D+00 0.502D+00
 Coeff-En:   0.000D+00 0.000D+00 0.000D+00 0.000D+00 0.000D+00 0.000D+00
 Coeff-En:   0.107D+00 0.893D+00
 Coeff:      0.241D-02-0.668D-02-0.179D-02 0.183D-01 0.463D-01 0.204D+00
 Coeff:      0.235D+00 0.502D+00
 Gap=     0.121 Goal=   None    Shift=    0.000
 RMSDP=3.00D-05 MaxDP=1.77D-03 DE=-1.14D-03 OVMax= 3.35D-03

 Cycle   9  Pass 1  IDiag  1:
 RMSU=  1.51D-05    CP:  1.00D+00  7.47D-01  2.48D-01  7.36D-01  6.38D-01
                    CP:  6.87D-01  4.59D-01  5.11D-01
 E= -7517.81819473363     Delta-E=       -0.000089689653 Rises=F Damp=F
 DIIS: error= 7.93D-05 at cycle   9 NSaved=   9.
 NSaved= 9 IEnMin= 9 EnMin= -7517.81819473363     IErMin= 9 ErrMin= 7.93D-05
 ErrMax= 7.93D-05  0.00D+00 EMaxC= 1.00D-01 BMatC= 1.02D-05 BMatP= 7.54D-05
 IDIUse=1 WtCom= 1.00D+00 WtEn= 0.00D+00
 Coeff-Com:  0.708D-03-0.157D-02-0.166D-02 0.150D-02 0.900D-02 0.700D-01
 Coeff-Com:  0.114D+00 0.333D+00 0.475D+00
 Coeff:      0.708D-03-0.157D-02-0.166D-02 0.150D-02 0.900D-02 0.700D-01
 Coeff:      0.114D+00 0.333D+00 0.475D+00
 Gap=     0.121 Goal=   None    Shift=    0.000
 RMSDP=1.04D-05 MaxDP=7.48D-04 DE=-8.97D-05 OVMax= 1.22D-03

 Cycle  10  Pass 1  IDiag  1:
 RMSU=  4.87D-06    CP:  1.00D+00  7.47D-01  2.47D-01  7.37D-01  6.41D-01
                    CP:  6.81D-01  4.65D-01  6.59D-01  5.86D-01
 E= -7517.81820477021     Delta-E=       -0.000010036583 Rises=F Damp=F
 DIIS: error= 3.75D-05 at cycle  10 NSaved=  10.
 NSaved=10 IEnMin=10 EnMin= -7517.81820477021     IErMin=10 ErrMin= 3.75D-05
 ErrMax= 3.75D-05  0.00D+00 EMaxC= 1.00D-01 BMatC= 1.07D-06 BMatP= 1.02D-05
 IDIUse=1 WtCom= 1.00D+00 WtEn= 0.00D+00
 Coeff-Com:  0.300D-03-0.603D-03-0.927D-03-0.352D-03 0.213D-02 0.310D-01
 Coeff-Com:  0.580D-01 0.178D+00 0.313D+00 0.420D+00
 Coeff:      0.300D-03-0.603D-03-0.927D-03-0.352D-03 0.213D-02 0.310D-01
 Coeff:      0.580D-01 0.178D+00 0.313D+00 0.420D+00
 Gap=     0.121 Goal=   None    Shift=    0.000
 RMSDP=4.12D-06 MaxDP=1.75D-04 DE=-1.00D-05 OVMax= 4.70D-04

 Cycle  11  Pass 1  IDiag  1:
 RMSU=  2.96D-06    CP:  1.00D+00  7.47D-01  2.47D-01  7.37D-01  6.41D-01
                    CP:  6.83D-01  4.69D-01  6.61D-01  6.50D-01  4.60D-01
 E= -7517.81820551018     Delta-E=       -0.000000739972 Rises=F Damp=F
 DIIS: error= 2.79D-05 at cycle  11 NSaved=  11.
 NSaved=11 IEnMin=11 EnMin= -7517.81820551018     IErMin=11 ErrMin= 2.79D-05
 ErrMax= 2.79D-05  0.00D+00 EMaxC= 1.00D-01 BMatC= 4.58D-07 BMatP= 1.07D-06
 IDIUse=1 WtCom= 1.00D+00 WtEn= 0.00D+00
 Coeff-Com:  0.575D-04-0.104D-03-0.257D-03-0.760D-03-0.119D-02 0.561D-02
 Coeff-Com:  0.156D-01 0.498D-01 0.129D+00 0.375D+00 0.428D+00
 Coeff:      0.575D-04-0.104D-03-0.257D-03-0.760D-03-0.119D-02 0.561D-02
 Coeff:      0.156D-01 0.498D-01 0.129D+00 0.375D+00 0.428D+00
 Gap=     0.121 Goal=   None    Shift=    0.000
 RMSDP=2.06D-06 MaxDP=8.67D-05 DE=-7.40D-07 OVMax= 2.49D-04

 Cycle  12  Pass 1  IDiag  1:
 RMSU=  8.13D-07    CP:  1.00D+00  7.47D-01  2.47D-01  7.37D-01  6.41D-01
                    CP:  6.85D-01  4.72D-01  6.65D-01  6.59D-01  7.10D-01
                    CP:  5.42D-01
 E= -7517.81820611114     Delta-E=       -0.000000600950 Rises=F Damp=F
 DIIS: error= 4.37D-06 at cycle  12 NSaved=  12.
 NSaved=12 IEnMin=12 EnMin= -7517.81820611114     IErMin=12 ErrMin= 4.37D-06
 ErrMax= 4.37D-06  0.00D+00 EMaxC= 1.00D-01 BMatC= 2.44D-08 BMatP= 4.58D-07
 IDIUse=1 WtCom= 1.00D+00 WtEn= 0.00D+00
 Coeff-Com: -0.299D-04 0.549D-04 0.772D-04-0.494D-03-0.153D-02-0.363D-02
 Coeff-Com: -0.392D-02-0.112D-01 0.667D-02 0.112D+00 0.222D+00 0.680D+00
 Coeff:     -0.299D-04 0.549D-04 0.772D-04-0.494D-03-0.153D-02-0.363D-02
 Coeff:     -0.392D-02-0.112D-01 0.667D-02 0.112D+00 0.222D+00 0.680D+00
 Gap=     0.121 Goal=   None    Shift=    0.000
 RMSDP=5.94D-07 MaxDP=2.35D-05 DE=-6.01D-07 OVMax= 9.32D-05

 Cycle  13  Pass 1  IDiag  1:
 RMSU=  3.18D-07    CP:  1.00D+00  7.46D-01  2.47D-01  7.38D-01  6.41D-01
                    CP:  6.86D-01  4.73D-01  6.67D-01  6.74D-01  7.24D-01
                    CP:  6.31D-01  8.38D-01
 E= -7517.81820613913     Delta-E=       -0.000000027991 Rises=F Damp=F
 DIIS: error= 9.59D-07 at cycle  13 NSaved=  13.
 NSaved=13 IEnMin=13 EnMin= -7517.81820613913     IErMin=13 ErrMin= 9.59D-07
 ErrMax= 9.59D-07  0.00D+00 EMaxC= 1.00D-01 BMatC= 1.60D-09 BMatP= 2.44D-08
 IDIUse=1 WtCom= 1.00D+00 WtEn= 0.00D+00
 Coeff-Com: -0.136D-04 0.251D-04 0.559D-04-0.196D-03-0.666D-03-0.204D-02
 Coeff-Com: -0.285D-02-0.887D-02-0.645D-02 0.265D-01 0.771D-01 0.343D+00
 Coeff-Com:  0.574D+00
 Coeff:     -0.136D-04 0.251D-04 0.559D-04-0.196D-03-0.666D-03-0.204D-02
 Coeff:     -0.285D-02-0.887D-02-0.645D-02 0.265D-01 0.771D-01 0.343D+00
 Coeff:      0.574D+00
 Gap=     0.121 Goal=   None    Shift=    0.000
 RMSDP=1.89D-07 MaxDP=1.40D-05 DE=-2.80D-08 OVMax= 2.57D-05

 Cycle  14  Pass 1  IDiag  1:
 RMSU=  1.17D-07    CP:  1.00D+00  7.46D-01  2.47D-01  7.38D-01  6.41D-01
                    CP:  6.86D-01  4.74D-01  6.68D-01  6.76D-01  7.29D-01
                    CP:  6.40D-01  9.17D-01  7.50D-01
 E= -7517.81820614093     Delta-E=       -0.000000001808 Rises=F Damp=F
 DIIS: error= 4.06D-07 at cycle  14 NSaved=  14.
 NSaved=14 IEnMin=14 EnMin= -7517.81820614093     IErMin=14 ErrMin= 4.06D-07
 ErrMax= 4.06D-07  0.00D+00 EMaxC= 1.00D-01 BMatC= 3.27D-10 BMatP= 1.60D-09
 IDIUse=1 WtCom= 1.00D+00 WtEn= 0.00D+00
 Coeff-Com: -0.360D-05 0.651D-05 0.213D-04-0.483D-04-0.176D-03-0.743D-03
 Coeff-Com: -0.118D-02-0.395D-02-0.526D-02-0.261D-02 0.109D-01 0.105D+00
 Coeff-Com:  0.347D+00 0.551D+00
 Coeff:     -0.360D-05 0.651D-05 0.213D-04-0.483D-04-0.176D-03-0.743D-03
 Coeff:     -0.118D-02-0.395D-02-0.526D-02-0.261D-02 0.109D-01 0.105D+00
 Coeff:      0.347D+00 0.551D+00
 Gap=     0.121 Goal=   None    Shift=    0.000
 RMSDP=7.21D-08 MaxDP=4.46D-06 DE=-1.81D-09 OVMax= 1.03D-05

 Cycle  15  Pass 1  IDiag  1:
 RMSU=  3.94D-08    CP:  1.00D+00  7.46D-01  2.47D-01  7.38D-01  6.41D-01
                    CP:  6.86D-01  4.74D-01  6.68D-01  6.76D-01  7.34D-01
                    CP:  6.43D-01  9.21D-01  8.52D-01  7.57D-01
 E= -7517.81820614077     Delta-E=        0.000000000167 Rises=F Damp=F
 DIIS: error= 1.20D-07 at cycle  15 NSaved=  15.
 NSaved=15 IEnMin=14 EnMin= -7517.81820614093     IErMin=15 ErrMin= 1.20D-07
 ErrMax= 1.20D-07  0.00D+00 EMaxC= 1.00D-01 BMatC= 2.82D-11 BMatP= 3.27D-10
 IDIUse=1 WtCom= 1.00D+00 WtEn= 0.00D+00
 Coeff-Com:  0.102D-05-0.183D-05-0.176D-06 0.143D-04 0.391D-04 0.237D-04
 Coeff-Com: -0.660D-04-0.351D-03-0.103D-02-0.567D-02-0.690D-02-0.824D-02
 Coeff-Com:  0.708D-01 0.249D+00 0.702D+00
 Coeff:      0.102D-05-0.183D-05-0.176D-06 0.143D-04 0.391D-04 0.237D-04
 Coeff:     -0.660D-04-0.351D-03-0.103D-02-0.567D-02-0.690D-02-0.824D-02
 Coeff:      0.708D-01 0.249D+00 0.702D+00
 Gap=     0.121 Goal=   None    Shift=    0.000
 RMSDP=2.37D-08 MaxDP=1.20D-06 DE= 1.67D-10 OVMax= 3.68D-06

 Cycle  16  Pass 1  IDiag  1:
 RMSU=  1.09D-08    CP:  1.00D+00  7.46D-01  2.47D-01  7.38D-01  6.41D-01
                    CP:  6.86D-01  4.74D-01  6.68D-01  6.77D-01  7.34D-01
                    CP:  6.45D-01  9.31D-01  8.63D-01  8.54D-01  8.78D-01
 E= -7517.81820614141     Delta-E=       -0.000000000646 Rises=F Damp=F
 DIIS: error= 4.51D-08 at cycle  16 NSaved=  16.
 NSaved=16 IEnMin=16 EnMin= -7517.81820614141     IErMin=16 ErrMin= 4.51D-08
 ErrMax= 4.51D-08  0.00D+00 EMaxC= 1.00D-01 BMatC= 2.17D-12 BMatP= 2.82D-11
 IDIUse=1 WtCom= 1.00D+00 WtEn= 0.00D+00
 Coeff-Com:  0.606D-06-0.115D-05-0.103D-05 0.927D-05 0.270D-04 0.483D-04
 Coeff-Com:  0.296D-04 0.401D-04-0.199D-03-0.252D-02-0.379D-02-0.977D-02
 Coeff-Com:  0.159D-01 0.811D-01 0.327D+00 0.592D+00
 Coeff:      0.606D-06-0.115D-05-0.103D-05 0.927D-05 0.270D-04 0.483D-04
 Coeff:      0.296D-04 0.401D-04-0.199D-03-0.252D-02-0.379D-02-0.977D-02
 Coeff:      0.159D-01 0.811D-01 0.327D+00 0.592D+00
 Gap=     0.121 Goal=   None    Shift=    0.000
 RMSDP=6.33D-09 MaxDP=4.72D-07 DE=-6.46D-10 OVMax= 1.00D-06

 SCF Done:  E(RPBE1PBE) =  -7517.81820614     A.U. after   16 cycles
            NFock= 16  Conv=0.63D-08     -V/T= 2.1285
 KE= 6.661929785706D+03 PE=-2.465280934577D+04 EE= 6.942294044471D+03
 Leave Link  502 at Tue Mar  6 12:17:15 2018, MaxMem=   536870912 cpu:      4583.9
 (Enter /share/apps//mg09/l601.exe)
 Copying SCF densities to generalized density rwf, IOpCl= 0 IROHF=0.

 **********************************************************************

            Population analysis using the SCF density.

 **********************************************************************

 Orbital symmetries:
       Occupied  (A) (A) (A) (A) (A) (A) (A) (A) (A) (A) (A) (A)
                 (A) (A) (A) (A) (A) (A) (A) (A) (A) (A) (A) (A)
                 (A) (A) (A) (A) (A) (A) (A) (A) (A) (A) (A) (A)
                 (A) (A) (A) (A) (A) (A) (A) (A) (A) (A) (A) (A)
                 (A) (A) (A) (A) (A) (A) (A) (A) (A) (A) (A) (A)
                 (A) (A) (A) (A) (A) (A) (A) (A) (A) (A) (A) (A)
                 (A) (A) (A) (A) (A) (A) (A) (A) (A) (A) (A) (A)
                 (A) (A) (A) (A) (A) (A) (A) (A) (A) (A) (A) (A)
                 (A) (A) (A) (A) (A) (A) (A) (A) (A) (A) (A) (A)
                 (A) (A) (A) (A) (A) (A) (A) (A)
       Virtual   (A) (A) (A) (A) (A) (A) (A) (A) (A) (A) (A) (A)
                 (A) (A) (A) (A) (A) (A) (A) (A) (A) (A) (A) (A)
                 (A) (A) (A) (A) (A) (A) (A) (A) (A) (A) (A) (A)
                 (A) (A) (A) (A) (A) (A) (A) (A) (A) (A) (A) (A)
                 (A) (A) (A) (A) (A) (A) (A) (A) (A) (A) (A) (A)
                 (A) (A) (A) (A) (A) (A) (A) (A) (A) (A) (A) (A)
                 (A) (A) (A) (A) (A) (A) (A) (A) (A) (A) (A) (A)
                 (A) (A) (A) (A) (A) (A) (A) (A) (A) (A) (A) (A)
                 (A) (A) (A) (A) (A) (A) (A) (A) (A) (A) (A) (A)
                 (A) (A) (A) (A) (A) (A) (A) (A) (A) (A) (A) (A)
                 (A) (A) (A) (A) (A) (A) (A) (A) (A) (A) (A) (A)
                 (A) (A) (A) (A) (A) (A) (A) (A) (A) (A) (A) (A)
                 (A) (A) (A) (A) (A) (A) (A) (A) (A) (A) (A) (A)
                 (A) (A) (A) (A) (A) (A) (A) (A) (A) (A) (A) (A)
                 (A) (A) (A) (A) (A) (A) (A) (A) (A) (A) (A) (A)
                 (A) (A) (A) (A) (A) (A) (A) (A) (A) (A) (A) (A)
                 (A) (A) (A) (A) (A) (A) (A) (A) (A) (A) (A) (A)
                 (A) (A) (A) (A) (A) (A) (A) (A) (A) (A) (A) (A)
                 (A) (A) (A) (A) (A) (A) (A) (A) (A) (A) (A) (A)
                 (A) (A) (A) (A) (A) (A) (A) (A) (A) (A) (A) (A)
                 (A) (A) (A) (A) (A) (A) (A) (A) (A) (A) (A) (A)
                 (A) (A) (A) (A) (A) (A) (A) (A) (A) (A) (A) (A)
                 (A) (A) (A) (A) (A) (A) (A) (A) (A) (A) (A) (A)
                 (A) (A) (A) (A) (A) (A) (A) (A) (A) (A) (A) (A)
                 (A) (A) (A) (A) (A) (A) (A) (A) (A) (A) (A) (A)
                 (A) (A) (A) (A) (A) (A) (A) (A) (A) (A) (A) (A)
                 (A) (A) (A) (A) (A) (A) (A) (A) (A) (A) (A) (A)
                 (A) (A) (A) (A)
 The electronic state is 1-A.
 Alpha  occ. eigenvalues -- -399.10553-399.09803-399.08901 -49.92094 -49.91357
 Alpha  occ. eigenvalues --  -49.90489 -44.40177 -44.40145 -44.40132 -44.39442
 Alpha  occ. eigenvalues --  -44.39418 -44.39382 -44.38565 -44.38545 -44.38518
 Alpha  occ. eigenvalues --   -6.28584  -6.27853  -6.26993  -6.01917  -6.01269
 Alpha  occ. eigenvalues --   -6.01217  -6.01176  -5.14379  -5.13718  -4.44013
 Alpha  occ. eigenvalues --   -4.43920  -4.43865  -4.43296  -4.43231  -4.43090
 Alpha  occ. eigenvalues --   -4.42428  -4.42353  -4.42261  -3.74181  -3.74036
 Alpha  occ. eigenvalues --   -3.73938  -3.73590  -3.73511  -3.73435  -3.73408
 Alpha  occ. eigenvalues --   -3.73352  -3.73273  -3.73258  -3.73211  -3.73165
 Alpha  occ. eigenvalues --   -3.47596  -3.47481  -3.47405  -3.46954  -3.46874
 Alpha  occ. eigenvalues --   -3.46680  -1.23451  -1.23425  -1.23364  -1.23327
 Alpha  occ. eigenvalues --   -1.23290  -1.22763  -1.22739  -1.22620  -1.22595
 Alpha  occ. eigenvalues --   -1.22543  -1.21876  -1.21860  -1.21795  -1.21720
 Alpha  occ. eigenvalues --   -1.21691  -1.08246  -1.07874  -1.07809  -1.07774
 Alpha  occ. eigenvalues --   -1.07586  -1.07192  -1.07163  -1.07109  -1.07082
 Alpha  occ. eigenvalues --   -1.07071  -1.07028  -1.07013  -1.06985  -1.06939
 Alpha  occ. eigenvalues --   -1.06881  -1.06824  -1.06815  -1.06788  -1.06748
 Alpha  occ. eigenvalues --   -1.06702  -1.03742  -1.03728  -1.03650  -1.03579
 Alpha  occ. eigenvalues --   -1.03544  -1.03155  -1.03137  -1.02975  -1.02940
 Alpha  occ. eigenvalues --   -1.02864  -0.66134  -0.61362  -0.60397  -0.57550
 Alpha  occ. eigenvalues --   -0.49373  -0.45805  -0.44593  -0.42549  -0.41777
 Alpha  occ. eigenvalues --   -0.28706  -0.27460  -0.25992  -0.25503  -0.24994
 Alpha  occ. eigenvalues --   -0.24253  -0.23142  -0.22968  -0.22130  -0.21267
 Alpha  occ. eigenvalues --   -0.20435
 Alpha virt. eigenvalues --   -0.08349  -0.07696  -0.06652  -0.06220  -0.05662
 Alpha virt. eigenvalues --   -0.05193  -0.04944  -0.04385  -0.04052  -0.03502
 Alpha virt. eigenvalues --   -0.03394  -0.02709  -0.01894   0.03618   0.04743
 Alpha virt. eigenvalues --    0.04869   0.06659   0.07720   0.08276   0.09206
 Alpha virt. eigenvalues --    0.09330   0.09668   0.09796   0.09966   0.10820
 Alpha virt. eigenvalues --    0.11209   0.11857   0.11975   0.12536   0.12981
 Alpha virt. eigenvalues --    0.13811   0.15050   0.16248   0.16630   0.17065
 Alpha virt. eigenvalues --    0.17520   0.19554   0.19672   0.20414   0.20751
 Alpha virt. eigenvalues --    0.20802   0.22159   0.22558   0.23409   0.23897
 Alpha virt. eigenvalues --    0.24962   0.25511   0.25591   0.26927   0.28176
 Alpha virt. eigenvalues --    0.29394   0.30018   0.30643   0.30729   0.31452
 Alpha virt. eigenvalues --    0.31556   0.32207   0.32895   0.33365   0.33981
 Alpha virt. eigenvalues --    0.34489   0.35111   0.35967   0.36224   0.37252
 Alpha virt. eigenvalues --    0.37842   0.39066   0.40761   0.41078   0.41585
 Alpha virt. eigenvalues --    0.42518   0.43052   0.44161   0.44498   0.44752
 Alpha virt. eigenvalues --    0.45205   0.45789   0.46536   0.47556   0.48368
 Alpha virt. eigenvalues --    0.48833   0.49057   0.50055   0.51077   0.51888
 Alpha virt. eigenvalues --    0.53665   0.54884   0.55021   0.55723   0.56241
 Alpha virt. eigenvalues --    0.57177   0.57933   0.58733   0.59231   0.59477
 Alpha virt. eigenvalues --    0.60016   0.60387   0.60458   0.60796   0.61866
 Alpha virt. eigenvalues --    0.63642   0.64306   0.64860   0.65498   0.66074
 Alpha virt. eigenvalues --    0.66388   0.66710   0.67542   0.67842   0.69110
 Alpha virt. eigenvalues --    0.69556   0.71011   0.71907   0.73159   0.73919
 Alpha virt. eigenvalues --    0.74973   0.76280   0.77102   0.77981   0.78812
 Alpha virt. eigenvalues --    0.79754   0.80346   0.80926   0.81918   0.82446
 Alpha virt. eigenvalues --    0.83209   0.84220   0.85296   0.85942   0.86119
 Alpha virt. eigenvalues --    0.87511   0.87842   0.89326   0.90037   0.90966
 Alpha virt. eigenvalues --    0.91343   0.91524   0.92745   0.93706   0.93760
 Alpha virt. eigenvalues --    0.94552   0.95528   0.96481   0.96996   0.97582
 Alpha virt. eigenvalues --    0.98213   0.98827   0.99245   0.99697   1.02328
 Alpha virt. eigenvalues --    1.02723   1.04152   1.04618   1.05886   1.07058
 Alpha virt. eigenvalues --    1.08963   1.09506   1.09972   1.10714   1.11515
 Alpha virt. eigenvalues --    1.12875   1.14417   1.15168   1.15388   1.16798
 Alpha virt. eigenvalues --    1.17572   1.17703   1.18696   1.19081   1.19299
 Alpha virt. eigenvalues --    1.19638   1.20067   1.20210   1.20985   1.22211
 Alpha virt. eigenvalues --    1.22396   1.22805   1.23450   1.23892   1.24682
 Alpha virt. eigenvalues --    1.24871   1.24956   1.25262   1.25994   1.27191
 Alpha virt. eigenvalues --    1.27689   1.28284   1.29209   1.29261   1.29964
 Alpha virt. eigenvalues --    1.30593   1.30980   1.31901   1.33452   1.34005
 Alpha virt. eigenvalues --    1.34527   1.35691   1.36369   1.36902   1.38445
 Alpha virt. eigenvalues --    1.38714   1.41156   1.42444   1.42485   1.44498
 Alpha virt. eigenvalues --    1.44602   1.45797   1.46309   1.47026   1.47737
 Alpha virt. eigenvalues --    1.48470   1.50579   1.51560   1.53073   1.53596
 Alpha virt. eigenvalues --    1.54108   1.55293   1.55766   1.58259   1.60867
 Alpha virt. eigenvalues --    1.63129   1.63898   1.67949   2.04983   2.10007
 Alpha virt. eigenvalues --    2.10717   2.13923   2.14239   2.15741   2.16124
 Alpha virt. eigenvalues --    2.16886   2.17977   2.18935   2.19411   2.20311
 Alpha virt. eigenvalues --    2.21761   2.22113   2.22681   2.25356   2.26153
 Alpha virt. eigenvalues --    2.26834   2.27521   2.29678   2.30497   2.31656
 Alpha virt. eigenvalues --    2.32897   2.35513   2.36633   2.39027   2.40293
 Alpha virt. eigenvalues --    2.40683   2.42278   2.43015   2.44150   2.45103
 Alpha virt. eigenvalues --    2.46111   2.47223   2.50911   2.51416   2.55354
 Alpha virt. eigenvalues --    2.57123   2.62206   2.62861   2.64440   2.66195
 Alpha virt. eigenvalues --    2.68099   2.71995   2.72556   2.74476   2.76306
 Alpha virt. eigenvalues --    2.76915   2.77924   2.78470   2.80837   2.81300
 Alpha virt. eigenvalues --    2.81857   2.83324   2.84538   2.87582   2.95714
 Alpha virt. eigenvalues --    3.20363   3.26567   3.29844   3.37740   3.37963
 Alpha virt. eigenvalues --    3.38637   3.92992   3.97407   3.98819   4.00791
 Alpha virt. eigenvalues --    4.01561   4.02453   4.05384   4.08267   4.10573
 Alpha virt. eigenvalues --    5.26479   5.30066   5.36327  35.36968  35.40657
 Alpha virt. eigenvalues --   35.42217  35.44853  35.45437  35.46577  35.50756
 Alpha virt. eigenvalues --   35.52060  35.52436  35.52888  35.57014  35.64135
 Alpha virt. eigenvalues --   35.86016  35.99612  36.01186  36.03311  36.17970
 Alpha virt. eigenvalues --   36.22536  36.93698  36.98882  37.01546  37.04704
 Alpha virt. eigenvalues --   37.07597  37.07951 113.56672 113.58657 120.21812
 Alpha virt. eigenvalues --  120.24932 120.24999 120.25188
          Condensed to atoms (all electrons):
               1          2          3          4          5          6
     1  Ge  31.565837   0.170666  -0.015350   0.193147  -0.012685  -0.014315
     2  Bi   0.170666  22.367410   0.162464  -0.021258   0.185850  -0.017922
     3  Ge  -0.015350   0.162464  31.534162  -0.019010   0.160581   0.050893
     4  Bi   0.193147  -0.021258  -0.019010  22.352346   0.170542   0.152574
     5  Bi  -0.012685   0.185850   0.160581   0.170542  22.381382   0.146233
     6  Sn  -0.014315  -0.017922   0.050893   0.152574   0.146233  21.352117
     7  Ge   0.136985  -0.021672  -0.017443   0.160352  -0.018309   0.060041
     8  Bi  -0.017755  -0.022741   0.183806  -0.020498  -0.021030   0.185462
     9  Sn   0.140395   0.149760   0.052612  -0.019840  -0.016302  -0.012739
               7          8          9
     1  Ge   0.136985  -0.017755   0.140395
     2  Bi  -0.021672  -0.022741   0.149760
     3  Ge  -0.017443   0.183806   0.052612
     4  Bi   0.160352  -0.020498  -0.019840
     5  Bi  -0.018309  -0.021030  -0.016302
     6  Sn   0.060041   0.185462  -0.012739
     7  Ge  31.534229   0.148781   0.108017
     8  Bi   0.148781  22.404224   0.160329
     9  Sn   0.108017   0.160329  21.327058
 Mulliken charges:
               1
     1  Ge  -0.146925
     2  Bi   0.047444
     3  Ge  -0.092713
     4  Bi   0.051647
     5  Bi   0.023738
     6  Sn   0.097657
     7  Ge  -0.090981
     8  Bi  -0.000577
     9  Sn   0.110711
 Sum of Mulliken charges =   0.00000
 Mulliken charges with hydrogens summed into heavy atoms:
               1
     1  Ge  -0.146925
     2  Bi   0.047444
     3  Ge  -0.092713
     4  Bi   0.051647
     5  Bi   0.023738
     6  Sn   0.097657
     7  Ge  -0.090981
     8  Bi  -0.000577
     9  Sn   0.110711
 Electronic spatial extent (au):  <R**2>=           5977.9834
 Charge=              0.0000 electrons
 Dipole moment (field-independent basis, Debye):
    X=              0.4116    Y=             -0.4681    Z=             -1.0467  Tot=              1.2183
 Quadrupole moment (field-independent basis, Debye-Ang):
   XX=           -214.0528   YY=           -216.2846   ZZ=           -223.2056
   XY=             -0.8768   XZ=             -0.6138   YZ=              0.8847
 Traceless Quadrupole moment (field-independent basis, Debye-Ang):
   XX=              3.7948   YY=              1.5631   ZZ=             -5.3579
   XY=             -0.8768   XZ=             -0.6138   YZ=              0.8847
 Octapole moment (field-independent basis, Debye-Ang**2):
  XXX=             68.7773  YYY=              0.2310  ZZZ=            -48.6935  XYY=             26.0907
  XXY=             -4.6314  XXZ=            -18.4110  XZZ=             26.2450  YZZ=             -6.9611
  YYZ=            -14.7058  XYZ=             -5.5230
 Hexadecapole moment (field-independent basis, Debye-Ang**3):
 XXXX=          -3496.1348 YYYY=          -3379.9062 ZZZZ=          -2905.7646 XXXY=             31.8216
 XXXZ=             21.2051 YYYX=             49.2645 YYYZ=            -42.3831 ZZZX=             26.0405
 ZZZY=            -68.9804 XXYY=          -1151.6825 XXZZ=          -1052.9184 YYZZ=          -1054.3136
 XXYZ=            -17.2636 YYXZ=             12.2637 ZZXY=              0.6174
 N-N= 3.530767309454D+03 E-N=-2.465280936984D+04  KE= 6.661929785706D+03
 No NMR shielding tensors so no spin-rotation constants.
 Leave Link  601 at Tue Mar  6 12:17:19 2018, MaxMem=   536870912 cpu:         2.4
 (Enter /share/apps//mg09/l701.exe)
 Compute integral first derivatives.
 ... and contract with generalized density number  0.
   1 Symmetry operations used in ECPInt.
 ECPInt:  NShTT=   10440 NPrTT=   41973 LenC2=    9659 LenP2D=   27453.
 LDataN:  DoStor=T MaxTD1= 9 Len=  602
 Leave Link  701 at Tue Mar  6 12:17:54 2018, MaxMem=   536870912 cpu:       120.5
 (Enter /share/apps//mg09/l702.exe)
 L702 exits ... SP integral derivatives will be done elsewhere.
 Leave Link  702 at Tue Mar  6 12:17:55 2018, MaxMem=   536870912 cpu:         0.1
 (Enter /share/apps//mg09/l703.exe)
 Compute integral first derivatives, UseDBF=F ICtDFT=           0.
 Integral derivatives from FoFJK, PRISM(SPDF).
 Calling FoFJK, ICntrl=      2127 FMM=F ISym2X=0 I1Cent= 0 IOpClX= 0 NMat=1 NMatS=1 NMatT=0.
 FoFJK:  IHMeth= 1 ICntrl=    2127 DoSepK=F KAlg= 0 I1Cent=   0 FoldK=F
 IRaf=         0 NMat=   1 IRICut=       1 DoRegI=T DoRafI=F ISym2E= 0.
 FoFCou: FMM=F IPFlag=           0 FMFlag=      100000 FMFlg1=         800
         NFxFlg=           0 DoJE=F BraDBF=F KetDBF=F FulRan=T
         wScrn=  0.000000 ICntrl=    2127 IOpCl=  0 I1Cent=           0 NGrid=           0
         NMat0=    1 NMatS0=      1 NMatT0=    0 NMatD0=    1 NMtDS0=    0 NMtDT0=    0
 Symmetry not used in FoFCou.
 Defaulting to unpruned grid for atomic number  83.
 Defaulting to unpruned grid for atomic number  83.
 Defaulting to unpruned grid for atomic number  83.
 Defaulting to unpruned grid for atomic number  83.
 Leave Link  703 at Tue Mar  6 12:24:57 2018, MaxMem=   536870912 cpu:      1632.2
 (Enter /share/apps//mg09/l716.exe)
 Dipole        = 1.61947372D-01-1.84174186D-01-4.11805441D-01
 ***** Axes restored to original set *****
 -------------------------------------------------------------------
 Center     Atomic                   Forces (Hartrees/Bohr)
 Number     Number              X              Y              Z
 -------------------------------------------------------------------
      1       32          -0.008344205   -0.006849742   -0.010417383
      2       83          -0.004876438   -0.008038216    0.001066797
      3       32           0.002898927   -0.003727845    0.011112350
      4       83          -0.008005455    0.005134015   -0.002488597
      5       83          -0.008100590    0.000938503    0.002780987
      6       50          -0.000458632    0.010522979    0.004579314
      7       32           0.007517672    0.009359984   -0.008505579
      8       83           0.009393594    0.002897010    0.002753131
      9       50           0.009975129   -0.010236690   -0.000881020
 -------------------------------------------------------------------
 Cartesian Forces:  Max     0.011112350 RMS     0.006909251
 Force constants in Cartesian coordinates: 
                1             2             3             4             5 
      1  0.122632D+00
      2  0.269789D-02  0.151919D+00
      3  0.264609D-01  0.157044D-01  0.162597D+00
      4 -0.179584D-01 -0.197193D-02 -0.958372D-02  0.124016D+00
      5 -0.100168D-01 -0.351005D-01  0.427568D-03  0.350733D-01  0.154470D+00
      6  0.143781D-01  0.284268D-01 -0.593429D-01 -0.823892D-02  0.323508D-02
      7  0.163383D-02  0.140281D-02  0.845253D-03 -0.340235D-01 -0.153960D-01
      8  0.282205D-02  0.368181D-02  0.218608D-02 -0.289737D-01 -0.309017D-01
      9 -0.372260D-02 -0.426864D-02 -0.261427D-02 -0.119761D-01 -0.429783D-02
     10 -0.273790D-01  0.473959D-02 -0.996326D-02  0.104189D-02  0.221455D-03
     11  0.320776D-01 -0.607940D-01 -0.559519D-02  0.717496D-03 -0.584869D-02
     12  0.926256D-02 -0.263846D-01 -0.343703D-01 -0.297629D-02  0.528115D-02
     13 -0.342934D-03 -0.306675D-03  0.280986D-02 -0.257687D-01 -0.828642D-02
     14 -0.174199D-03  0.587827D-02 -0.503701D-02  0.246501D-01 -0.500407D-01
     15  0.309065D-02 -0.492702D-02 -0.507998D-02  0.160775D-01 -0.376576D-02
     16  0.638192D-02 -0.121842D-02 -0.170850D-02  0.387263D-02  0.207585D-02
     17 -0.233662D-02 -0.111145D-02 -0.957333D-02 -0.441922D-02 -0.253715D-02
     18 -0.822891D-03 -0.215821D-03  0.789774D-04 -0.270592D-02 -0.172764D-02
     19 -0.391663D-01 -0.203593D-01  0.992712D-02  0.296936D-02 -0.651351D-02
     20 -0.214275D-01 -0.436215D-01  0.164486D-01 -0.138015D-02 -0.171513D-02
     21 -0.165026D-01 -0.144525D-01 -0.346620D-01  0.448756D-02  0.825186D-02
     22 -0.646419D-03 -0.454561D-02 -0.778557D-02 -0.195155D-02 -0.675723D-02
     23 -0.190580D-02  0.667526D-02 -0.510704D-02 -0.214162D-02 -0.123152D-02
     24 -0.232389D-03 -0.337791D-02  0.801080D-03 -0.335840D-02  0.282097D-03
     25 -0.451544D-01  0.195617D-01 -0.110021D-01 -0.521977D-01  0.959929D-02
     26 -0.173657D-02 -0.275266D-01 -0.945401D-02 -0.215543D-01 -0.270944D-01
     27 -0.319118D-01  0.949540D-02 -0.274078D-01  0.182742D-01 -0.768652D-02
                6             7             8             9            10 
      6  0.125783D+00
      7 -0.183967D-01  0.128058D+00
      8 -0.273072D-01  0.180584D-01  0.861527D-01
      9 -0.411651D-01  0.128550D-01 -0.110633D-01  0.112684D+00
     10 -0.267019D-02  0.284461D-02  0.258722D-02 -0.670679D-02  0.162395D+00
     11  0.478131D-02 -0.638151D-03 -0.362021D-03  0.196167D-02 -0.347756D-01
     12  0.506140D-02  0.813296D-04  0.207878D-03 -0.143023D-03  0.158988D-01
     13  0.667706D-02 -0.630714D-01  0.129482D-01  0.414464D-02 -0.241441D-01
     14 -0.160521D-01  0.130865D-01 -0.210458D-01  0.506690D-02 -0.336435D-02
     15 -0.241658D-01 -0.212465D-01  0.148156D-01 -0.194649D-01  0.215706D-01
     16 -0.112091D-02  0.454532D-02  0.223415D-02 -0.126030D-02 -0.353065D-01
     17  0.134480D-02  0.176328D-02 -0.893263D-02  0.156110D-02  0.923175D-02
     18  0.132821D-02 -0.174020D-02  0.572043D-02 -0.678766D-03 -0.138449D-01
     19  0.234210D-02  0.419214D-02 -0.163961D-03  0.509045D-02 -0.757665D-01
     20 -0.447812D-03  0.251693D-02  0.338114D-03  0.350825D-02  0.178644D-01
     21  0.292365D-02 -0.194988D-02  0.155539D-03 -0.235770D-02 -0.373341D-02
     22 -0.170004D-02 -0.458001D-01 -0.129757D-01 -0.745526D-03 -0.363222D-02
     23  0.225329D-02 -0.239065D-01 -0.306250D-01  0.868376D-02 -0.213466D-02
     24  0.774755D-02  0.244589D-01  0.195936D-01 -0.377435D-01 -0.382351D-02
     25  0.872957D-02  0.162096D-02  0.346345D-02  0.232121D-02 -0.532800D-04
     26  0.376583D-02  0.311271D-02  0.169458D-02 -0.115189D-02  0.563009D-02
     27 -0.181704D-01  0.509290D-02 -0.430862D-02 -0.851704D-02  0.327268D-02
               11            12            13            14            15 
     11  0.128454D+00
     12  0.216281D-02  0.139382D+00
     13  0.112983D-01 -0.101994D-01  0.158950D+00
     14 -0.238882D-01  0.161628D-01 -0.971669D-02  0.113337D+00
     15  0.114921D-01 -0.470982D-01 -0.263395D-01 -0.515660D-02  0.108577D+00
     16 -0.128504D-01 -0.266011D-01 -0.390816D-01 -0.250264D-01 -0.195737D-02
     17 -0.216684D-01 -0.255682D-02 -0.457328D-02 -0.390032D-01 -0.124843D-01
     18 -0.247629D-01 -0.403348D-01  0.142716D-01  0.893228D-02 -0.148864D-01
     19 -0.675615D-02  0.253864D-01 -0.285549D-03  0.189368D-02  0.420178D-02
     20 -0.209762D-01 -0.493527D-03 -0.495906D-02  0.372866D-02  0.435509D-02
     21  0.867115D-02 -0.331140D-01  0.729833D-02 -0.195090D-02 -0.245600D-03
     22  0.358837D-02 -0.688097D-02 -0.566966D-02 -0.101621D-02  0.420645D-02
     23  0.387615D-02  0.116386D-02 -0.264143D-02  0.749080D-02 -0.210158D-02
     24  0.337187D-02  0.587360D-02 -0.647231D-03 -0.285699D-02  0.261308D-02
     25  0.733853D-02 -0.397126D-02 -0.586202D-03 -0.332490D-03  0.396382D-03
     26  0.120755D-02  0.445651D-02  0.623712D-02  0.354357D-02 -0.222760D-02
     27 -0.208284D-02  0.474333D-02  0.198460D-02  0.891585D-03 -0.249356D-03
               16            17            18            19            20 
     16  0.121967D+00
     17  0.247571D-02  0.133699D+00
     18  0.616765D-02  0.324227D-01  0.101292D+00
     19 -0.147925D-01 -0.103776D-01  0.548709D-02  0.185872D+00
     20  0.324803D-02 -0.203073D-01 -0.173178D-01  0.194810D-01  0.148958D+00
     21  0.136870D-01  0.855563D-02 -0.310874D-01 -0.137238D-01 -0.310440D-01
     22 -0.515030D-01  0.107530D-02 -0.944404D-02 -0.385421D-01 -0.788431D-02
     23  0.300007D-01 -0.368009D-01 -0.259977D-02  0.524135D-02 -0.239911D-01
     24  0.116067D-01 -0.136756D-01 -0.192849D-01 -0.353426D-01  0.123345D-02
     25  0.391686D-02  0.716070D-02  0.263158D-02 -0.244800D-01 -0.745931D-02
     26 -0.939190D-03 -0.333764D-02 -0.451461D-03  0.175545D-01 -0.424131D-01
     27  0.118695D-02 -0.559420D-02  0.357333D-02 -0.336860D-02  0.237578D-01
               21            22            23            24            25 
     21  0.187493D+00
     22  0.314597D-03  0.178358D+00
     23  0.174434D-01  0.181557D-01  0.123347D+00
     24 -0.653667D-01  0.197623D-01  0.605271D-02  0.129330D+00
     25  0.101222D-01 -0.306128D-01 -0.206677D-01 -0.124237D-01  0.147546D+00
     26  0.436983D-02  0.103597D-01 -0.487411D-01 -0.106232D-01 -0.186641D-01
     27 -0.235836D-01  0.227285D-02 -0.257886D-01 -0.239698D-01  0.319616D-02
               26            27 
     26  0.142667D+00
     27  0.113160D-01  0.935813D-01
 Leave Link  716 at Tue Mar  6 12:24:57 2018, MaxMem=   536870912 cpu:         0.6
 (Enter /share/apps//mg09/l103.exe)

 GradGradGradGradGradGradGradGradGradGradGradGradGradGradGradGradGradGrad
 Berny optimization.
 Search for a local minimum.
 Step number   1 out of a maximum of  100
 All quantities printed in internal units (Hartrees-Bohrs-Radians)
 Second derivative matrix not updated -- first step.
 ITU=  0
     Eigenvalues ---    0.05593   0.08214   0.08691   0.10257   0.11620
     Eigenvalues ---    0.12129   0.12336   0.13358   0.14534   0.14800
     Eigenvalues ---    0.15849   0.18016   0.19656   0.21861   0.22192
     Eigenvalues ---    0.22930   0.24751   0.25508   0.27075   0.28051
     Eigenvalues ---    0.28914
 RFO step:  Lambda=-8.19059412D-03 EMin= 5.59262074D-02
 Linear search not attempted -- first point.
 TrRot= -0.000167 -0.000442 -0.000517  0.000022 -0.000049  0.000022
 MatCor failed.
 Variable       Old X    -DE/DX   Delta X   Delta X   Delta X     New X
                                 (Linear)    (Quad)   (Total)
    X1        1.01451  -0.00834   0.00000  -0.04597  -0.04644   0.96807
    Y1        2.05076  -0.00685   0.00000  -0.03756  -0.03796   2.01280
    Z1        4.51004  -0.01042   0.00000  -0.06369  -0.06416   4.44588
    X2        1.65498  -0.00488   0.00000  -0.01830  -0.01864   1.63634
    Y2        4.48919  -0.00804   0.00000  -0.06313  -0.06350   4.42569
    Z2       -0.46969   0.00107   0.00000   0.01392   0.01348  -0.45621
    X3       -1.30507   0.00290   0.00000   0.00774   0.00770  -1.29736
    Y3        1.51288  -0.00373   0.00000  -0.03193  -0.03243   1.48044
    Z3       -4.04676   0.01111   0.00000   0.08647   0.08589  -3.96087
    X4        2.95001  -0.00801   0.00000  -0.04197  -0.04215   2.90786
    Y4       -2.70912   0.00513   0.00000   0.04082   0.04050  -2.66862
    Z4        2.64004  -0.00249   0.00000  -0.02948  -0.02986   2.61018
    X5        3.69555  -0.00810   0.00000  -0.04801  -0.04804   3.64751
    Y5       -0.40393   0.00094   0.00000   0.00813   0.00785  -0.39608
    Z5       -2.62917   0.00278   0.00000   0.03009   0.02975  -2.59942
    X6       -0.32577  -0.00046   0.00000  -0.00541  -0.00530  -0.33106
    Y6       -4.50670   0.01052   0.00000   0.08425   0.08379  -4.42291
    Z6       -1.74652   0.00458   0.00000   0.02146   0.02093  -1.72559
    X7       -2.37368   0.00752   0.00000   0.03575   0.03549  -2.33819
    Y7       -1.93803   0.00936   0.00000   0.04929   0.04874  -1.88928
    Z7        3.71547  -0.00851   0.00000  -0.05061  -0.05124   3.66423
    X8       -4.94740   0.00939   0.00000   0.05748   0.05743  -4.88998
    Y8       -1.32666   0.00290   0.00000   0.01641   0.01576  -1.31090
    Z8       -1.13922   0.00275   0.00000   0.02659   0.02583  -1.11339
    X9       -3.53533   0.00998   0.00000   0.06034   0.05994  -3.47539
    Y9        3.38417  -0.01024   0.00000  -0.06216  -0.06275   3.32141
    Z9        1.72488  -0.00088   0.00000  -0.02993  -0.03062   1.69426
         Item               Value     Threshold  Converged?
 Maximum Force            0.011112     0.000450     NO 
 RMS     Force            0.006909     0.000300     NO 
 Maximum Displacement     0.085892     0.001800     NO 
 RMS     Displacement     0.045034     0.001200     NO 
 Predicted change in Energy=-4.319559D-03
 Lowest energy point so far.  Saving SCF results.
 GradGradGradGradGradGradGradGradGradGradGradGradGradGradGradGradGradGrad

 Leave Link  103 at Tue Mar  6 12:24:57 2018, MaxMem=   536870912 cpu:         0.3
 (Enter /share/apps//mg09/l202.exe)
                          Input orientation:                          
 ---------------------------------------------------------------------
 Center     Atomic      Atomic             Coordinates (Angstroms)
 Number     Number       Type             X           Y           Z
 ---------------------------------------------------------------------
      1         32           0        0.512280    1.065128    2.352657
      2         83           0        0.865916    2.341974   -0.241417
      3         32           0       -0.686536    0.783417   -2.096001
      4         83           0        1.538774   -1.412171    1.381248
      5         83           0        1.930181   -0.209595   -1.375555
      6         50           0       -0.175192   -2.340504   -0.913144
      7         32           0       -1.237318   -0.999765    1.939027
      8         83           0       -2.587664   -0.693698   -0.589181
      9         50           0       -1.839095    1.757617    0.896562
 ---------------------------------------------------------------------
                    Distance matrix (angstroms):
                    1          2          3          4          5
     1  Ge   0.000000
     2  Bi   2.912836   0.000000
     3  Ge   4.615959   2.877271   0.000000
     4  Bi   2.852076   4.144802   4.675881   0.000000
     5  Bi   4.187473   2.988216   2.890039   3.033042   0.000000
     6  Sn   4.768271   4.843627   3.379276   3.010601   3.031038
     7  Ge   2.737876   4.510560   4.445734   2.861448   4.652297
     8  Bi   4.621421   4.611232   2.840187   4.628853   4.611254
     9  Sn   2.851091   2.992249   3.351551   4.657518   4.820776
                    6          7          8          9
     6  Sn   0.000000
     7  Ge   3.325744   0.000000
     8  Bi   2.938868   2.882524   0.000000
     9  Sn   4.778934   3.008658   2.962555   0.000000
 Stoichiometry    Bi4Ge3Sn2
 Framework group  C1[X(Bi4Ge3Sn2)]
 Deg. of freedom    21
 Full point group                 C1      NOp   1
 RotChk:  IX=0 Diff= 1.64D-02
 Largest Abelian subgroup         C1      NOp   1
 Largest concise Abelian subgroup C1      NOp   1
                         Standard orientation:                         
 ---------------------------------------------------------------------
 Center     Atomic      Atomic             Coordinates (Angstroms)
 Number     Number       Type             X           Y           Z
 ---------------------------------------------------------------------
      1         32           0        0.519351    1.061189    2.351230
      2         83           0        0.894394    2.331463   -0.243064
      3         32           0       -0.670314    0.788579   -2.100450
      4         83           0        1.520701   -1.428395    1.384997
      5         83           0        1.933127   -0.232968   -1.371850
      6         50           0       -0.197244   -2.339717   -0.913236
      7         32           0       -1.252121   -0.984386    1.934726
      8         83           0       -2.592001   -0.665684   -0.597486
      9         50           0       -1.820110    1.778543    0.887999
 ---------------------------------------------------------------------
 Rotational constants (GHZ):      0.1017102      0.0921785      0.0804054
 Leave Link  202 at Tue Mar  6 12:24:58 2018, MaxMem=   536870912 cpu:         0.1
 (Enter /share/apps//mg09/l301.exe)
 Standard basis: def2TZVP (5D, 7F)
 Ernie: Thresh=  0.10000D-02 Tol=  0.10000D-05 Strict=F.
 There are   519 symmetry adapted cartesian basis functions of A   symmetry.
 There are   444 symmetry adapted basis functions of A   symmetry.
   444 basis functions,   963 primitive gaussians,   519 cartesian basis functions
   116 alpha electrons      116 beta electrons
       nuclear repulsion energy      3588.1995440565 Hartrees.
 IExCor= 1009 DFT=T Ex+Corr=PBE1PBE ExCW=0 ScaHFX=  0.250000
 ScaDFX=  0.750000  0.750000  1.000000  1.000000 ScalE2=  1.000000  1.000000
 IRadAn=      0 IRanWt=     -1 IRanGd=            0 ICorTp=0 IEmpDi=  4
 NAtoms=    9 NActive=    9 NUniq=    9 SFac= 1.00D+00 NAtFMM=   60 NAOKFM=F Big=F
 Integral buffers will be    131072 words long.
 Raffenetti 2 integral format.
 Two-electron integral symmetry is turned on.
 Leave Link  301 at Tue Mar  6 12:24:59 2018, MaxMem=   536870912 cpu:         0.3
 (Enter /share/apps//mg09/l302.exe)
 NPDir=0 NMtPBC=     1 NCelOv=     1 NCel=       1 NClECP=     1 NCelD=      1
         NCelK=      1 NCelE2=     1 NClLst=     1 CellRange=     0.0.
 One-electron integrals computed using PRISM.
   1 Symmetry operations used in ECPInt.
 ECPInt:  NShTT=   10440 NPrTT=   41973 LenC2=    9687 LenP2D=   27627.
 LDataN:  DoStor=T MaxTD1= 8 Len=  415
 NBasis=   444 RedAO= T EigKep=  1.44D-03  NBF=   444
 NBsUse=   444 1.00D-06 EigRej= -1.00D+00 NBFU=   444
 Precomputing XC quadrature grid using
 IXCGrd= 4 IRadAn=           0 IRanWt=          -1 IRanGd=           0 AccXCQ= 0.00D+00.
 Defaulting to unpruned grid for atomic number  83.
 Defaulting to unpruned grid for atomic number  83.
 Defaulting to unpruned grid for atomic number  83.
 Generated NRdTot=       0 NPtTot=           0 NUsed=           0 NTot=          32
 NSgBfM=   503   503   503   503   503 MxSgAt=     9 MxSgA2=     9.
 Leave Link  302 at Tue Mar  6 12:25:20 2018, MaxMem=   536870912 cpu:        82.9
 (Enter /share/apps//mg09/l303.exe)
 DipDrv:  MaxL=1.
 Leave Link  303 at Tue Mar  6 12:25:20 2018, MaxMem=   536870912 cpu:         0.4
 (Enter /share/apps//mg09/l401.exe)
 Initial guess from the checkpoint file:  "Isomer_04.chk"
 B after Tr=     0.000000    0.000000    0.000000
         Rot=    0.999983    0.000399    0.001233    0.005654 Ang=   0.66 deg.
 Guess basis will be translated and rotated to current coordinates.
 JPrj=2 DoOrth=T DoCkMO=T.
 Generating alternative initial guess.
 ExpMin= 4.62D-02 ExpMax= 4.66D+05 ExpMxC= 4.50D+03 IAcc=2 IRadAn=         4 AccDes= 0.00D+00
 Harris functional with IExCor= 1009 and IRadAn=       4 diagonalized for initial guess.
 HarFok:  IExCor= 1009 AccDes= 0.00D+00 IRadAn=         4 IDoV= 1 UseB2=F ITyADJ=14
 ICtDFT=  3500011 ScaDFX=  1.000000  1.000000  1.000000  1.000000
 Defaulting to unpruned grid for atomic number  83.
 Defaulting to unpruned grid for atomic number  83.
 Defaulting to unpruned grid for atomic number  83.
 Defaulting to unpruned grid for atomic number  83.
 FoFCou: FMM=F IPFlag=           0 FMFlag=      100000 FMFlg1=           0
         NFxFlg=           0 DoJE=T BraDBF=F KetDBF=T FulRan=T
         wScrn=  0.000000 ICntrl=     500 IOpCl=  0 I1Cent=   200000004 NGrid=           0
         NMat0=    1 NMatS0=      1 NMatT0=    0 NMatD0=    1 NMtDS0=    0 NMtDT0=    0
 Petite list used in FoFCou.
 Harris En= -7518.61399584305    
 Leave Link  401 at Tue Mar  6 12:25:29 2018, MaxMem=   536870912 cpu:        34.3
 (Enter /share/apps//mg09/l502.exe)
 Closed shell SCF:
 Using DIIS extrapolation, IDIIS=  1040.
 Integral symmetry usage will be decided dynamically.
 IVT=     1410107 IEndB=     1410107 NGot=   536870912 MDV=   536322046
 LenX=   536322046 LenY=   536052166
 Requested convergence on RMS density matrix=1.00D-08 within 768 cycles.
 Requested convergence on MAX density matrix=1.00D-06.
 Requested convergence on             energy=1.00D-06.
 No special actions if energy rises.
 Fock matrices will be formed incrementally for  20 cycles.

 Cycle   1  Pass 1  IDiag  1:
 FoFJK:  IHMeth= 1 ICntrl=       0 DoSepK=F KAlg= 0 I1Cent=   0 FoldK=F
 IRaf= 880000000 NMat=   1 IRICut=       1 DoRegI=T DoRafI=F ISym2E= 0.
 FoFCou: FMM=F IPFlag=           0 FMFlag=      100000 FMFlg1=           0
         NFxFlg=           0 DoJE=F BraDBF=F KetDBF=F FulRan=T
         wScrn=  0.000000 ICntrl=       0 IOpCl=  0 I1Cent=           0 NGrid=           0
         NMat0=    1 NMatS0=      1 NMatT0=    0 NMatD0=    1 NMtDS0=    0 NMtDT0=    0
 Symmetry not used in FoFCou.
 Defaulting to unpruned grid for atomic number  83.
 Defaulting to unpruned grid for atomic number  83.
 Defaulting to unpruned grid for atomic number  83.
 Defaulting to unpruned grid for atomic number  83.
 E= -7517.82250248027    
 DIIS: error= 5.46D-03 at cycle   1 NSaved=   1.
 NSaved= 1 IEnMin= 1 EnMin= -7517.82250248027     IErMin= 1 ErrMin= 5.46D-03
 ErrMax= 5.46D-03  0.00D+00 EMaxC= 1.00D-01 BMatC= 9.36D-03 BMatP= 9.36D-03
 IDIUse=3 WtCom= 9.45D-01 WtEn= 5.46D-02
 Coeff-Com:  0.100D+01
 Coeff-En:   0.100D+01
 Coeff:      0.100D+01
 Gap=     6.878 Goal=   None    Shift=    0.000
 GapD=    6.878 DampG=2.000 DampE=1.000 DampFc=2.0000 IDamp=-1.
 RMSDP=1.89D-04 MaxDP=4.10D-03              OVMax= 2.44D-02

 Cycle   2  Pass 1  IDiag  1:
 RMSU=  1.89D-04    CP:  1.00D+00
 E= -7517.82259962400     Delta-E=       -0.000097143731 Rises=F Damp=F
 DIIS: error= 1.43D-03 at cycle   2 NSaved=   2.
 NSaved= 2 IEnMin= 2 EnMin= -7517.82259962400     IErMin= 2 ErrMin= 1.43D-03
 ErrMax= 1.43D-03  0.00D+00 EMaxC= 1.00D-01 BMatC= 1.66D-03 BMatP= 9.36D-03
 IDIUse=3 WtCom= 9.86D-01 WtEn= 1.43D-02
 Coeff-Com:  0.189D+00 0.811D+00
 Coeff-En:   0.473D+00 0.527D+00
 Coeff:      0.193D+00 0.807D+00
 Gap=     0.122 Goal=   None    Shift=    0.000
 RMSDP=2.10D-04 MaxDP=8.91D-03 DE=-9.71D-05 OVMax= 1.57D-02

 Cycle   3  Pass 1  IDiag  1:
 RMSU=  1.92D-04    CP:  9.99D-01  5.78D-01
 E= -7517.82082133033     Delta-E=        0.001778293677 Rises=F Damp=F
 DIIS: error= 2.15D-03 at cycle   3 NSaved=   3.
 NSaved= 3 IEnMin= 2 EnMin= -7517.82259962400     IErMin= 2 ErrMin= 1.43D-03
 ErrMax= 2.15D-03  0.00D+00 EMaxC= 1.00D-01 BMatC= 3.85D-03 BMatP= 1.66D-03
 IDIUse=3 WtCom= 1.77D-01 WtEn= 8.23D-01
 Coeff-Com:  0.401D-02 0.603D+00 0.393D+00
 Coeff-En:   0.000D+00 0.657D+00 0.343D+00
 Coeff:      0.710D-03 0.647D+00 0.352D+00
 Gap=     0.124 Goal=   None    Shift=    0.000
 RMSDP=1.10D-04 MaxDP=5.24D-03 DE= 1.78D-03 OVMax= 1.00D-02

 Cycle   4  Pass 1  IDiag  1:
 RMSU=  2.94D-05    CP:  9.99D-01  8.27D-01  5.09D-01
 E= -7517.82380615416     Delta-E=       -0.002984823834 Rises=F Damp=F
 DIIS: error= 3.21D-04 at cycle   4 NSaved=   4.
 NSaved= 4 IEnMin= 4 EnMin= -7517.82380615416     IErMin= 4 ErrMin= 3.21D-04
 ErrMax= 3.21D-04  0.00D+00 EMaxC= 1.00D-01 BMatC= 1.24D-04 BMatP= 1.66D-03
 IDIUse=3 WtCom= 9.97D-01 WtEn= 3.21D-03
 Coeff-Com: -0.469D-03 0.394D+00 0.204D+00 0.403D+00
 Coeff-En:   0.000D+00 0.288D-01 0.000D+00 0.971D+00
 Coeff:     -0.467D-03 0.393D+00 0.203D+00 0.405D+00
 Gap=     0.124 Goal=   None    Shift=    0.000
 RMSDP=3.10D-05 MaxDP=1.41D-03 DE=-2.98D-03 OVMax= 2.89D-03

 Cycle   5  Pass 1  IDiag  1:
 RMSU=  1.57D-05    CP:  9.99D-01  8.80D-01  4.53D-01  2.48D-01
 E= -7517.82388586929     Delta-E=       -0.000079715132 Rises=F Damp=F
 DIIS: error= 1.21D-04 at cycle   5 NSaved=   5.
 NSaved= 5 IEnMin= 5 EnMin= -7517.82388586929     IErMin= 5 ErrMin= 1.21D-04
 ErrMax= 1.21D-04  0.00D+00 EMaxC= 1.00D-01 BMatC= 1.78D-05 BMatP= 1.24D-04
 IDIUse=3 WtCom= 9.99D-01 WtEn= 1.21D-03
 Coeff-Com: -0.907D-03 0.221D+00 0.101D+00 0.327D+00 0.352D+00
 Coeff-En:   0.000D+00 0.000D+00 0.000D+00 0.194D+00 0.806D+00
 Coeff:     -0.906D-03 0.221D+00 0.101D+00 0.327D+00 0.352D+00
 Gap=     0.124 Goal=   None    Shift=    0.000
 RMSDP=1.20D-05 MaxDP=5.81D-04 DE=-7.97D-05 OVMax= 1.25D-03

 Cycle   6  Pass 1  IDiag  1:
 RMSU=  3.99D-06    CP:  9.99D-01  8.86D-01  4.47D-01  5.20D-01  5.05D-01
 E= -7517.82390790331     Delta-E=       -0.000022034021 Rises=F Damp=F
 DIIS: error= 1.52D-05 at cycle   6 NSaved=   6.
 NSaved= 6 IEnMin= 6 EnMin= -7517.82390790331     IErMin= 6 ErrMin= 1.52D-05
 ErrMax= 1.52D-05  0.00D+00 EMaxC= 1.00D-01 BMatC= 4.07D-07 BMatP= 1.78D-05
 IDIUse=1 WtCom= 1.00D+00 WtEn= 0.00D+00
 Coeff-Com: -0.356D-03 0.566D-01 0.251D-01 0.106D+00 0.171D+00 0.641D+00
 Coeff:     -0.356D-03 0.566D-01 0.251D-01 0.106D+00 0.171D+00 0.641D+00
 Gap=     0.124 Goal=   None    Shift=    0.000
 RMSDP=2.52D-06 MaxDP=1.35D-04 DE=-2.20D-05 OVMax= 3.63D-04

 Cycle   7  Pass 1  IDiag  1:
 RMSU=  1.84D-06    CP:  9.99D-01  8.90D-01  4.50D-01  5.11D-01  5.83D-01
                    CP:  9.22D-01
 E= -7517.82390821054     Delta-E=       -0.000000307231 Rises=F Damp=F
 DIIS: error= 9.06D-06 at cycle   7 NSaved=   7.
 NSaved= 7 IEnMin= 7 EnMin= -7517.82390821054     IErMin= 7 ErrMin= 9.06D-06
 ErrMax= 9.06D-06  0.00D+00 EMaxC= 1.00D-01 BMatC= 1.45D-07 BMatP= 4.07D-07
 IDIUse=1 WtCom= 1.00D+00 WtEn= 0.00D+00
 Coeff-Com: -0.657D-04-0.543D-02-0.218D-02 0.884D-02 0.450D-01 0.425D+00
 Coeff-Com:  0.528D+00
 Coeff:     -0.657D-04-0.543D-02-0.218D-02 0.884D-02 0.450D-01 0.425D+00
 Coeff:      0.528D+00
 Gap=     0.124 Goal=   None    Shift=    0.000
 RMSDP=1.46D-06 MaxDP=1.01D-04 DE=-3.07D-07 OVMax= 2.21D-04

 Cycle   8  Pass 1  IDiag  1:
 RMSU=  8.99D-07    CP:  9.99D-01  8.91D-01  4.52D-01  5.15D-01  6.00D-01
                    CP:  1.09D+00  5.93D-01
 E= -7517.82390829480     Delta-E=       -0.000000084252 Rises=F Damp=F
 DIIS: error= 6.14D-06 at cycle   8 NSaved=   8.
 NSaved= 8 IEnMin= 8 EnMin= -7517.82390829480     IErMin= 8 ErrMin= 6.14D-06
 ErrMax= 6.14D-06  0.00D+00 EMaxC= 1.00D-01 BMatC= 6.40D-08 BMatP= 1.45D-07
 IDIUse=1 WtCom= 1.00D+00 WtEn= 0.00D+00
 Coeff-Com:  0.175D-04-0.164D-01-0.692D-02-0.140D-01 0.226D-02 0.228D+00
 Coeff-Com:  0.444D+00 0.364D+00
 Coeff:      0.175D-04-0.164D-01-0.692D-02-0.140D-01 0.226D-02 0.228D+00
 Coeff:      0.444D+00 0.364D+00
 Gap=     0.124 Goal=   None    Shift=    0.000
 RMSDP=8.14D-07 MaxDP=3.52D-05 DE=-8.43D-08 OVMax= 8.97D-05

 Cycle   9  Pass 1  IDiag  1:
 RMSU=  3.75D-07    CP:  9.99D-01  8.91D-01  4.53D-01  5.21D-01  6.05D-01
                    CP:  1.12D+00  7.25D-01  2.94D-01
 E= -7517.82390836627     Delta-E=       -0.000000071472 Rises=F Damp=F
 DIIS: error= 2.15D-06 at cycle   9 NSaved=   9.
 NSaved= 9 IEnMin= 9 EnMin= -7517.82390836627     IErMin= 9 ErrMin= 2.15D-06
 ErrMax= 2.15D-06  0.00D+00 EMaxC= 1.00D-01 BMatC= 5.51D-09 BMatP= 6.40D-08
 IDIUse=1 WtCom= 1.00D+00 WtEn= 0.00D+00
 Coeff-Com:  0.229D-04-0.100D-01-0.416D-02-0.103D-01-0.615D-02 0.825D-01
 Coeff-Com:  0.218D+00 0.265D+00 0.465D+00
 Coeff:      0.229D-04-0.100D-01-0.416D-02-0.103D-01-0.615D-02 0.825D-01
 Coeff:      0.218D+00 0.265D+00 0.465D+00
 Gap=     0.124 Goal=   None    Shift=    0.000
 RMSDP=2.60D-07 MaxDP=1.39D-05 DE=-7.15D-08 OVMax= 3.67D-05

 Cycle  10  Pass 1  IDiag  1:
 RMSU=  1.17D-07    CP:  9.99D-01  8.92D-01  4.53D-01  5.22D-01  6.10D-01
                    CP:  1.12D+00  7.38D-01  4.83D-01  6.89D-01
 E= -7517.82390837394     Delta-E=       -0.000000007671 Rises=F Damp=F
 DIIS: error= 4.54D-07 at cycle  10 NSaved=  10.
 NSaved=10 IEnMin=10 EnMin= -7517.82390837394     IErMin=10 ErrMin= 4.54D-07
 ErrMax= 4.54D-07  0.00D+00 EMaxC= 1.00D-01 BMatC= 2.27D-10 BMatP= 5.51D-09
 IDIUse=1 WtCom= 1.00D+00 WtEn= 0.00D+00
 Coeff-Com:  0.564D-05-0.153D-02-0.567D-03-0.190D-02-0.299D-02 0.156D-02
 Coeff-Com:  0.238D-01 0.445D-01 0.194D+00 0.743D+00
 Coeff:      0.564D-05-0.153D-02-0.567D-03-0.190D-02-0.299D-02 0.156D-02
 Coeff:      0.238D-01 0.445D-01 0.194D+00 0.743D+00
 Gap=     0.124 Goal=   None    Shift=    0.000
 RMSDP=8.63D-08 MaxDP=3.40D-06 DE=-7.67D-09 OVMax= 1.22D-05

 Cycle  11  Pass 1  IDiag  1:
 RMSU=  6.72D-08    CP:  9.99D-01  8.92D-01  4.53D-01  5.23D-01  6.10D-01
                    CP:  1.13D+00  7.47D-01  4.84D-01  7.78D-01  9.14D-01
 E= -7517.82390837447     Delta-E=       -0.000000000529 Rises=F Damp=F
 DIIS: error= 5.89D-07 at cycle  11 NSaved=  11.
 NSaved=11 IEnMin=11 EnMin= -7517.82390837447     IErMin=10 ErrMin= 4.54D-07
 ErrMax= 5.89D-07  0.00D+00 EMaxC= 1.00D-01 BMatC= 2.96D-10 BMatP= 2.27D-10
 IDIUse=1 WtCom= 1.00D+00 WtEn= 0.00D+00
 Coeff-Com:  0.560D-06 0.502D-03 0.275D-03 0.224D-03-0.137D-02-0.129D-01
 Coeff-Com: -0.188D-01-0.106D-01 0.867D-01 0.626D+00 0.330D+00
 Coeff:      0.560D-06 0.502D-03 0.275D-03 0.224D-03-0.137D-02-0.129D-01
 Coeff:     -0.188D-01-0.106D-01 0.867D-01 0.626D+00 0.330D+00
 Gap=     0.124 Goal=   None    Shift=    0.000
 RMSDP=5.45D-08 MaxDP=2.35D-06 DE=-5.29D-10 OVMax= 6.99D-06

 Cycle  12  Pass 1  IDiag  1:
 RMSU=  2.17D-08    CP:  9.99D-01  8.92D-01  4.53D-01  5.23D-01  6.11D-01
                    CP:  1.13D+00  7.49D-01  4.84D-01  7.95D-01  1.08D+00
                    CP:  3.47D-01
 E= -7517.82390837479     Delta-E=       -0.000000000324 Rises=F Damp=F
 DIIS: error= 1.17D-07 at cycle  12 NSaved=  12.
 NSaved=12 IEnMin=12 EnMin= -7517.82390837479     IErMin=12 ErrMin= 1.17D-07
 ErrMax= 1.17D-07  0.00D+00 EMaxC= 1.00D-01 BMatC= 1.50D-11 BMatP= 2.27D-10
 IDIUse=1 WtCom= 1.00D+00 WtEn= 0.00D+00
 Coeff-Com: -0.640D-06 0.580D-03 0.271D-03 0.452D-03-0.266D-03-0.826D-02
 Coeff-Com: -0.162D-01-0.156D-01 0.212D-01 0.260D+00 0.218D+00 0.540D+00
 Coeff:     -0.640D-06 0.580D-03 0.271D-03 0.452D-03-0.266D-03-0.826D-02
 Coeff:     -0.162D-01-0.156D-01 0.212D-01 0.260D+00 0.218D+00 0.540D+00
 Gap=     0.124 Goal=   None    Shift=    0.000
 RMSDP=1.41D-08 MaxDP=9.99D-07 DE=-3.24D-10 OVMax= 1.88D-06

 Cycle  13  Pass 1  IDiag  1:
 RMSU=  6.31D-09    CP:  9.99D-01  8.92D-01  4.53D-01  5.23D-01  6.11D-01
                    CP:  1.13D+00  7.48D-01  4.85D-01  8.10D-01  1.09D+00
                    CP:  4.68D-01  7.53D-01
 E= -7517.82390837486     Delta-E=       -0.000000000069 Rises=F Damp=F
 DIIS: error= 1.84D-08 at cycle  13 NSaved=  13.
 NSaved=13 IEnMin=13 EnMin= -7517.82390837486     IErMin=13 ErrMin= 1.84D-08
 ErrMax= 1.84D-08  0.00D+00 EMaxC= 1.00D-01 BMatC= 9.70D-13 BMatP= 1.50D-11
 IDIUse=1 WtCom= 1.00D+00 WtEn= 0.00D+00
 Coeff-Com: -0.426D-06 0.255D-03 0.112D-03 0.239D-03 0.558D-04-0.279D-02
 Coeff-Com: -0.625D-02-0.753D-02-0.669D-03 0.593D-01 0.719D-01 0.276D+00
 Coeff-Com:  0.609D+00
 Coeff:     -0.426D-06 0.255D-03 0.112D-03 0.239D-03 0.558D-04-0.279D-02
 Coeff:     -0.625D-02-0.753D-02-0.669D-03 0.593D-01 0.719D-01 0.276D+00
 Coeff:      0.609D+00
 Gap=     0.124 Goal=   None    Shift=    0.000
 RMSDP=3.72D-09 MaxDP=2.04D-07 DE=-6.91D-11 OVMax= 5.01D-07

 SCF Done:  E(RPBE1PBE) =  -7517.82390837     A.U. after   13 cycles
            NFock= 13  Conv=0.37D-08     -V/T= 2.1284
 KE= 6.662149858836D+03 PE=-2.476775167876D+04 EE= 6.999578367488D+03
 Leave Link  502 at Tue Mar  6 12:46:34 2018, MaxMem=   536870912 cpu:      4671.3
 (Enter /share/apps//mg09/l701.exe)
 Compute integral first derivatives.
 ... and contract with generalized density number  0.
   1 Symmetry operations used in ECPInt.
 ECPInt:  NShTT=   10440 NPrTT=   41973 LenC2=    9687 LenP2D=   27627.
 LDataN:  DoStor=T MaxTD1= 9 Len=  602
 Leave Link  701 at Tue Mar  6 12:47:08 2018, MaxMem=   536870912 cpu:       134.5
 (Enter /share/apps//mg09/l702.exe)
 L702 exits ... SP integral derivatives will be done elsewhere.
 Leave Link  702 at Tue Mar  6 12:47:08 2018, MaxMem=   536870912 cpu:         0.1
 (Enter /share/apps//mg09/l703.exe)
 Compute integral first derivatives, UseDBF=F ICtDFT=           0.
 Integral derivatives from FoFJK, PRISM(SPDF).
 Calling FoFJK, ICntrl=      2127 FMM=F ISym2X=0 I1Cent= 0 IOpClX= 0 NMat=1 NMatS=1 NMatT=0.
 FoFJK:  IHMeth= 1 ICntrl=    2127 DoSepK=F KAlg= 0 I1Cent=   0 FoldK=F
 IRaf=         0 NMat=   1 IRICut=       1 DoRegI=T DoRafI=F ISym2E= 0.
 FoFCou: FMM=F IPFlag=           0 FMFlag=      100000 FMFlg1=         800
         NFxFlg=           0 DoJE=F BraDBF=F KetDBF=F FulRan=T
         wScrn=  0.000000 ICntrl=    2127 IOpCl=  0 I1Cent=           0 NGrid=           0
         NMat0=    1 NMatS0=      1 NMatT0=    0 NMatD0=    1 NMtDS0=    0 NMtDT0=    0
 Symmetry not used in FoFCou.
 Defaulting to unpruned grid for atomic number  83.
 Defaulting to unpruned grid for atomic number  83.
 Defaulting to unpruned grid for atomic number  83.
 Defaulting to unpruned grid for atomic number  83.
 Leave Link  703 at Tue Mar  6 12:52:51 2018, MaxMem=   536870912 cpu:      1360.6
 (Enter /share/apps//mg09/l716.exe)
 Dipole        = 1.84788285D-01-1.85634702D-01-4.25283263D-01
 ***** Axes restored to original set *****
 -------------------------------------------------------------------
 Center     Atomic                   Forces (Hartrees/Bohr)
 Number     Number              X              Y              Z
 -------------------------------------------------------------------
      1       32          -0.005379873   -0.003980346   -0.004560814
      2       83          -0.001855731   -0.000794532    0.000721658
      3       32           0.001615654   -0.001672463    0.004888464
      4       83          -0.003097794    0.001084650    0.001437173
      5       83          -0.001967670   -0.000309027   -0.001778014
      6       50          -0.000116648    0.004026534    0.001909377
      7       32           0.004817681    0.005675673   -0.004075059
      8       83           0.001294514    0.000286416    0.000521471
      9       50           0.004689867   -0.004316905    0.000935744
 -------------------------------------------------------------------
 Cartesian Forces:  Max     0.005675673 RMS     0.003072531
 Leave Link  716 at Tue Mar  6 12:52:52 2018, MaxMem=   536870912 cpu:         0.1
 (Enter /share/apps//mg09/l103.exe)

 GradGradGradGradGradGradGradGradGradGradGradGradGradGradGradGradGradGrad
 Berny optimization.
 Search for a local minimum.
 Step number   2 out of a maximum of  100
 All quantities printed in internal units (Hartrees-Bohrs-Radians)
 Update second derivatives using D2CorN and points    1    2
 DE= -5.70D-03 DEPred=-4.32D-03 R= 1.32D+00
 TightC=F SS=  1.41D+00  RLast= 2.34D-01 DXNew= 5.0454D-01 7.0201D-01
 Trust test= 1.32D+00 RLast= 2.34D-01 DXMaxT set to 5.05D-01
 ITU=  1  0
     Eigenvalues ---    0.05575   0.07344   0.08666   0.10238   0.10698
     Eigenvalues ---    0.11786   0.12139   0.13009   0.13765   0.14551
     Eigenvalues ---    0.15093   0.18037   0.19606   0.21853   0.22160
     Eigenvalues ---    0.22932   0.24718   0.25435   0.27074   0.28058
     Eigenvalues ---    0.28777
 RFO step:  Lambda=-5.14929072D-04 EMin= 5.57464237D-02
 Quartic linear search produced a step of  0.54731.
 TrRot= -0.000099  0.000139 -0.000024  0.000003 -0.000091  0.000003
 MatCor failed.
 Variable       Old X    -DE/DX   Delta X   Delta X   Delta X     New X
                                 (Linear)    (Quad)   (Total)
    X1        0.96807  -0.00538  -0.02542  -0.01828  -0.04421   0.92385
    Y1        2.01280  -0.00398  -0.02078  -0.00868  -0.02931   1.98349
    Z1        4.44588  -0.00456  -0.03512  -0.00275  -0.03781   4.40807
    X2        1.63634  -0.00186  -0.01020   0.00093  -0.00935   1.62700
    Y2        4.42569  -0.00079  -0.03475   0.01475  -0.01985   4.40584
    Z2       -0.45621   0.00072   0.00738   0.00296   0.01047  -0.44575
    X3       -1.29736   0.00162   0.00421   0.00429   0.00875  -1.28862
    Y3        1.48044  -0.00167  -0.01775   0.00049  -0.01713   1.46331
    Z3       -3.96087   0.00489   0.04701   0.00637   0.05323  -3.90763
    X4        2.90786  -0.00310  -0.02307   0.00041  -0.02298   2.88489
    Y4       -2.66862   0.00108   0.02217  -0.00426   0.01806  -2.65056
    Z4        2.61018   0.00144  -0.01634   0.01487  -0.00123   2.60895
    X5        3.64751  -0.00197  -0.02629   0.00818  -0.01797   3.62955
    Y5       -0.39608  -0.00031   0.00430  -0.00762  -0.00317  -0.39925
    Z5       -2.59942  -0.00178   0.01628  -0.02843  -0.01184  -2.61126
    X6       -0.33106  -0.00012  -0.00290   0.00199  -0.00082  -0.33189
    Y6       -4.42291   0.00403   0.04586  -0.00225   0.04375  -4.37917
    Z6       -1.72559   0.00191   0.01146   0.00400   0.01540  -1.71019
    X7       -2.33819   0.00482   0.01942   0.00862   0.02763  -2.31056
    Y7       -1.88928   0.00568   0.02668   0.01425   0.04105  -1.84823
    Z7        3.66423  -0.00408  -0.02805  -0.00472  -0.03300   3.63123
    X8       -4.88998   0.00129   0.03143  -0.01038   0.02106  -4.86892
    Y8       -1.31090   0.00029   0.00863  -0.00369   0.00504  -1.30586
    Z8       -1.11339   0.00052   0.01414  -0.00166   0.01201  -1.10138
    X9       -3.47539   0.00469   0.03281   0.00536   0.03790  -3.43749
    Y9        3.32141  -0.00432  -0.03434  -0.00421  -0.03843   3.28298
    Z9        1.69426   0.00094  -0.01676   0.00986  -0.00724   1.68702
         Item               Value     Threshold  Converged?
 Maximum Force            0.005676     0.000450     NO 
 RMS     Force            0.003073     0.000300     NO 
[...]
     X     X   X                         X                X                                                                          
     X     X   X                         X                                                                                           
           X   X                         X                                                                                           
               X                         X                                                                                           
               X                         X                                                                                           
               X                         X                                                                                           
               X                         X                                                                                           
               X                         X                                                                                           
               X                         X                                                                                           
               X                         X                                                                                           
                                         X                                                                                           
                                         X                                                                                           
                                         X                                                                                           
                                         X                                                                                           
                                         X                                                                                           
 
 ***** Axes restored to original set *****
 -------------------------------------------------------------------
 Center     Atomic                   Forces (Hartrees/Bohr)
 Number     Number              X              Y              Z
 -------------------------------------------------------------------
      1       32           0.000008463    0.000034968    0.000013276
      2       83          -0.000007262   -0.000003025    0.000040741
      3       32          -0.000039522    0.000046200   -0.000033120
      4       83           0.000068991    0.000055497   -0.000034334
      5       83           0.000000865   -0.000005116   -0.000064182
      6       50          -0.000045749   -0.000050367    0.000056070
      7       32          -0.000031801   -0.000170897   -0.000034024
      8       83           0.000034537    0.000088027    0.000014719
      9       50           0.000011479    0.000004711    0.000040853
 -------------------------------------------------------------------
 Cartesian Forces:  Max     0.000170897 RMS     0.000051381
 Force constants in Cartesian coordinates: 
                1             2             3             4             5 
      1  0.499713D-01
      2 -0.235849D-02  0.641711D-01
      3  0.156245D-01  0.602235D-02  0.601849D-01
      4 -0.378038D-02 -0.488110D-02  0.288535D-02  0.611528D-01
      5 -0.422770D-02 -0.858133D-02  0.916638D-02  0.138895D-01  0.781492D-01
      6  0.218201D-02  0.119418D-01 -0.241550D-01 -0.147405D-01  0.102705D-01
      7 -0.244719D-02  0.251580D-02 -0.200259D-02 -0.116958D-01 -0.117760D-01
      8  0.121198D-02  0.134427D-02 -0.469829D-02 -0.133329D-01 -0.113016D-01
      9 -0.134971D-02  0.325994D-02 -0.605060D-02 -0.105325D-01 -0.850002D-02
     10 -0.889617D-02  0.136600D-01  0.187500D-02  0.136877D-02 -0.191945D-02
     11  0.138563D-01 -0.302806D-01 -0.952695D-02  0.454759D-02 -0.479304D-02
     12  0.345962D-02 -0.128132D-01 -0.548658D-02 -0.970910D-03  0.143175D-02
     13  0.870688D-03 -0.660664D-03 -0.138808D-02 -0.952995D-02  0.133527D-01
     14  0.225013D-02 -0.398693D-03 -0.181375D-02  0.133316D-01 -0.388009D-01
     15  0.485466D-02 -0.786389D-03 -0.348872D-02  0.826734D-02 -0.171475D-01
     16 -0.890160D-03 -0.310548D-02 -0.551460D-04  0.583150D-03 -0.177895D-02
     17 -0.119748D-02 -0.314656D-02  0.566880D-03  0.159401D-02 -0.469841D-02
     18  0.167806D-02 -0.594091D-02 -0.339725D-02 -0.197020D-02  0.211782D-02
     19 -0.110734D-01 -0.160599D-01 -0.192959D-02 -0.459805D-02  0.976537D-04
     20 -0.147539D-01 -0.167225D-01 -0.527909D-03 -0.135571D-02 -0.338989D-02
     21 -0.643157D-02 -0.429761D-02 -0.574637D-02  0.158261D-02  0.600117D-03
     22 -0.185725D-02  0.286085D-03 -0.167412D-03 -0.176556D-02  0.455720D-03
     23 -0.149450D-02 -0.357235D-02 -0.129157D-03 -0.274728D-02 -0.183955D-02
     24 -0.275237D-02 -0.241729D-03 -0.311402D-02  0.578667D-03 -0.306398D-03
     25 -0.218974D-01  0.106038D-01 -0.148420D-01 -0.317350D-01 -0.809357D-02
     26  0.671373D-02 -0.281337D-02  0.940442D-03 -0.110457D-01 -0.474447D-02
     27 -0.172652D-01  0.285579D-02 -0.874636D-02  0.149001D-01  0.236735D-02
                6             7             8             9            10 
      6  0.534579D-01
      7 -0.106210D-01  0.641383D-01
      8 -0.977960D-02  0.111641D-01  0.344756D-01
      9 -0.171800D-01  0.841472D-02 -0.845803D-02  0.564205D-01
     10  0.114801D-02  0.127795D-02 -0.108017D-02 -0.708282D-03  0.709404D-01
     11  0.257459D-02 -0.382278D-03 -0.291717D-02 -0.833422D-03 -0.186833D-01
     12 -0.109840D-02 -0.720901D-02  0.465198D-02 -0.404996D-02  0.980502D-02
     13  0.864018D-02 -0.298254D-01  0.908697D-02 -0.312805D-02 -0.629021D-02
     14 -0.162139D-01  0.913332D-02 -0.332597D-02  0.481300D-02 -0.397767D-03
     15 -0.573524D-02 -0.532172D-02  0.503925D-02 -0.326721D-02  0.321168D-02
     16 -0.364851D-02  0.153915D-02  0.399804D-04 -0.246073D-02 -0.144407D-01
     17 -0.401461D-02  0.240934D-03 -0.461776D-02 -0.405700D-03 -0.339296D-02
     18 -0.331475D-03 -0.270939D-02  0.174940D-02 -0.272699D-02 -0.179387D-01
     19  0.183055D-02  0.123352D-02  0.342964D-02 -0.125643D-02 -0.365434D-01
     20  0.474171D-02  0.662043D-03 -0.287279D-02  0.596410D-03  0.927995D-02
     21 -0.334807D-02  0.556329D-02  0.368877D-02 -0.607220D-02  0.277620D-02
     22 -0.288496D-03 -0.224285D-01 -0.133829D-01  0.104424D-01 -0.286063D-02
     23 -0.182904D-02 -0.145178D-01 -0.118210D-01  0.921544D-02  0.181112D-02
     24  0.113526D-02  0.128112D-01  0.916850D-02 -0.120699D-01 -0.578200D-03
     25  0.154977D-01 -0.179212D-02  0.286333D-02  0.578616D-03 -0.455605D-02
     26  0.230855D-02  0.295990D-02  0.103640D-02  0.312381D-03  0.722515D-03
     27 -0.274505D-02  0.107447D-02 -0.136199D-02 -0.500370D-02  0.409215D-03
               11            12            13            14            15 
     11  0.508781D-01
     12 -0.837377D-03  0.701329D-01
     13 -0.682172D-03  0.528896D-02  0.722918D-01
     14 -0.535064D-02  0.156487D-01 -0.628244D-02  0.674913D-01
     15  0.160771D-01 -0.324710D-01 -0.202625D-01 -0.447123D-02  0.514643D-01
     16 -0.417112D-02 -0.174846D-01 -0.198337D-01 -0.163110D-01  0.646054D-02
     17 -0.531717D-02 -0.981628D-02 -0.153945D-01 -0.176510D-01  0.338098D-02
     18 -0.100329D-01 -0.209003D-01  0.730881D-02  0.324990D-02  0.116870D-02
     19  0.674504D-02  0.630473D-02 -0.142283D-02 -0.607266D-02  0.501602D-02
     20  0.109392D-02  0.106128D-02 -0.104653D-02 -0.132060D-02 -0.199032D-02
     21  0.100448D-02 -0.308693D-02  0.772821D-03  0.265207D-02 -0.453997D-02
     22 -0.176788D-02 -0.752733D-03 -0.303501D-02 -0.102889D-02 -0.109352D-02
     23  0.125735D-02  0.210438D-02  0.871699D-03 -0.290025D-03 -0.435188D-03
     24  0.636299D-03 -0.100533D-02  0.175629D-02  0.120434D-03 -0.117825D-02
     25  0.537827D-03  0.155893D-02 -0.322544D-02  0.537766D-02 -0.113250D-02
     26 -0.457078D-02 -0.143123D-02  0.754856D-03 -0.353442D-03  0.333314D-03
     27  0.938226D-03 -0.203442D-02  0.101158D-02 -0.398527D-02 -0.195262D-02
               16            17            18            19            20 
     16  0.680950D-01
     17  0.680761D-03  0.571754D-01
     18  0.667124D-02  0.156476D-01  0.328380D-01
     19 -0.325999D-03 -0.133850D-02  0.305897D-02  0.684047D-01
     20 -0.146309D-02 -0.248461D-02 -0.273142D-02  0.607663D-02  0.452191D-01
     21  0.344633D-02 -0.871365D-03 -0.371580D-02  0.379081D-02 -0.130293D-01
     22 -0.359545D-01  0.200502D-01  0.285466D-02 -0.125887D-01 -0.310645D-03
     23  0.213679D-01 -0.145091D-01 -0.419887D-02  0.695536D-03 -0.104467D-02
     24  0.300152D-02 -0.338732D-02 -0.542909D-03 -0.162735D-01  0.243543D-02
     25  0.122771D-02 -0.124247D-02  0.104651D-02 -0.308590D-02  0.291128D-02
     26  0.474095D-02 -0.475069D-02  0.139420D-03  0.642657D-02 -0.184779D-01
     27  0.406935D-02 -0.110017D-02 -0.239197D-02 -0.541609D-03  0.944417D-02
               21            22            23            24            25 
     21  0.528409D-01
     22 -0.130274D-01  0.866833D-01
     23  0.327035D-02  0.558752D-02  0.617070D-01
     24 -0.253617D-01  0.881099D-02  0.104513D-01  0.511292D-01
     25  0.152693D-02 -0.619323D-02 -0.115742D-01 -0.735468D-02  0.712574D-01
     26  0.698253D-02 -0.988919D-02 -0.298876D-01 -0.188765D-01 -0.138361D-02
     27 -0.969930D-03 -0.677843D-02 -0.184492D-01 -0.899244D-02  0.312052D-02
               26            27 
     26  0.645619D-01
     27  0.929108D-02  0.328365D-01
 Leave Link  716 at Tue Mar  6 17:47:31 2018, MaxMem=   536870912 cpu:         0.3
 (Enter /share/apps//mg09/l103.exe)

 GradGradGradGradGradGradGradGradGradGradGradGradGradGradGradGradGradGrad
 Berny optimization.
 Search for a local minimum.
 Step number   1 out of a maximum of    2
 All quantities printed in internal units (Hartrees-Bohrs-Radians)
 Second derivative matrix not updated -- analytic derivatives used.
 ITU=  0
     Eigenvalues ---    0.00385   0.01231   0.02328   0.03436   0.04368
     Eigenvalues ---    0.04612   0.05494   0.05884   0.05995   0.06217
     Eigenvalues ---    0.06631   0.07800   0.08490   0.08654   0.09742
     Eigenvalues ---    0.11215   0.11895   0.12391   0.13545   0.14150
     Eigenvalues ---    0.15107
 Angle between quadratic step and forces=  49.40 degrees.
 Linear search not attempted -- first point.
 TrRot= -0.000118  0.000104 -0.000024  1.147560 -0.000138 -1.147525
 Variable       Old X    -DE/DX   Delta X   Delta X   Delta X     New X
                                 (Linear)    (Quad)   (Total)
    X1        0.89522   0.00001   0.00000  -0.00722  -0.00766   0.88756
    Y1        1.96850   0.00003   0.00000   0.00137   0.00095   1.96945
    Z1        4.41040   0.00001   0.00000   0.00572   0.00600   4.41639
    X2        1.64624  -0.00001   0.00000   0.00642   0.00618   1.65242
    Y2        4.41267   0.00000   0.00000  -0.00626  -0.00604   4.40662
    Z2       -0.43896   0.00004   0.00000   0.00452   0.00515  -0.43381
    X3       -1.28653  -0.00004   0.00000  -0.00070  -0.00065  -1.28718
    Y3        1.45832   0.00005   0.00000   0.00920   0.00974   1.46806
    Z3       -3.87645  -0.00003   0.00000   0.00031   0.00040  -3.87605
    X4        2.90214   0.00007   0.00000   0.00790   0.00772   2.90986
    Y4       -2.65031   0.00006   0.00000   0.01282   0.01269  -2.63762
    Z4        2.62423  -0.00003   0.00000  -0.00130  -0.00150   2.62274
    X5        3.63091   0.00000   0.00000  -0.00612  -0.00608   3.62483
    Y5       -0.40351  -0.00001   0.00000  -0.00619  -0.00562  -0.40913
    Z5       -2.63910  -0.00006   0.00000  -0.01228  -0.01215  -2.65125
    X6       -0.33587  -0.00005   0.00000  -0.00198  -0.00185  -0.33772
    Y6       -4.36085  -0.00005   0.00000  -0.00691  -0.00661  -4.36746
    Z6       -1.68565   0.00006   0.00000   0.01603   0.01544  -1.67022
    X7       -2.28342  -0.00003   0.00000   0.00092   0.00066  -2.28276
    Y7       -1.82938  -0.00017   0.00000  -0.00857  -0.00900  -1.83838
    Z7        3.59683  -0.00003   0.00000  -0.00607  -0.00645   3.59038
    X8       -4.91013   0.00003   0.00000   0.00149   0.00149  -4.90865
    Y8       -1.32009   0.00009   0.00000   0.00359   0.00367  -1.31643
    Z8       -1.10990   0.00001   0.00000  -0.00527  -0.00574  -1.11564
    X9       -3.43075   0.00001   0.00000   0.00052   0.00019  -3.43055
    Y9        3.27722   0.00000   0.00000   0.00046   0.00023   3.27745
    Z9        1.67766   0.00004   0.00000  -0.00133  -0.00114   1.67652
         Item               Value     Threshold  Converged?
 Maximum Force            0.000171     0.000450     YES
 RMS     Force            0.000051     0.000300     YES
 Maximum Displacement     0.015436     0.001800     NO 
 RMS     Displacement     0.006639     0.001200     NO 
 Predicted change in Energy=-3.052814D-06
 GradGradGradGradGradGradGradGradGradGradGradGradGradGradGradGradGradGrad

 Leave Link  103 at Tue Mar  6 17:47:31 2018, MaxMem=   536870912 cpu:         0.2
 (Enter /share/apps//mg09/l9999.exe)
 1\1\GINC-COMPUTE-0-11\Freq\RPBE1PBE\def2TZVP\Bi4Ge3Sn2\RODRIGO\06-Mar-
 2018\0\\#P Geom=AllCheck Guess=TCheck SCRF=Check GenChk RPBE1PBE/def2T
 ZVP Freq\\01Final_coords.xyz_04\\0,1\Ge,0.4737314643,1.0416876488,2.33
 38815417\Bi,0.8711530906,2.3350822921,-0.2322858561\Ge,-0.6808047348,0
 .7717079064,-2.0513300041\Bi,1.5357464875,-1.4024855705,1.3886853128\B
 i,1.9213929106,-0.2135286147,-1.3965495444\Sn,-0.1777339523,-2.3076602
 65,-0.8920083091\Ge,-1.2083346419,-0.9680679141,1.9033601283\Bi,-2.598
 3311526,-0.6985641352,-0.587334334\Sn,-1.8154724713,1.7342296521,0.887
 779065\\Version=ES64L-G09RevD.01\State=1-A\HF=-7517.8253927\RMSD=8.087
 e-09\RMSF=5.138e-05\ZeroPoint=0.0058134\Thermal=0.0232936\Dipole=0.198
 618,-0.1820988,-0.4460497\DipoleDeriv=-0.1114064,0.0177576,0.0237848,0
 .0434866,-0.1656758,0.0720162,-0.0068167,0.0616565,0.0553813,-0.046705
 4,0.0171352,0.0141466,0.0421778,0.0451081,-0.0499026,0.023251,-0.07864
 27,-0.1617139,-0.0554233,-0.0269691,0.048172,-0.0114148,0.0484022,-0.0
 105326,-0.0272563,-0.0072978,0.0451427,-0.0091105,-0.0033447,0.0462361
 ,-0.027112,-0.0337502,-0.1298322,0.030837,-0.1074987,-0.0798748,0.0035
 742,0.0170862,-0.0584619,0.0103872,-0.1704178,0.0405616,-0.03525,0.049
 0639,0.0262669,0.022058,0.0418277,0.0279214,-0.0072585,0.2796876,0.075
 702,0.0025582,0.056952,0.1204311,-0.0958155,0.0366579,-0.0950035,0.026
 7728,0.0003844,-0.049034,-0.0060997,0.0327484,0.0085377,0.1206836,0.08
 80991,0.0889505,0.0717479,-0.1517386,-0.0156835,0.0318639,-0.0256693,-
 0.1086783,0.1721454,-0.1882499,-0.095746,-0.1487869,0.1480002,0.066705
 2,-0.0130875,0.0186877,0.0945073\Polar=385.0280651,-4.7249619,387.1233
 75,-2.2477683,10.9142635,359.9583948\PG=C01 [X(Bi4Ge3Sn2)]\NImag=0\\0.
 04997125,-0.00235849,0.06417112,0.01562450,0.00602235,0.06018489,-0.00
 378038,-0.00488110,0.00288535,0.06115283,-0.00422770,-0.00858133,0.009
 16638,0.01388954,0.07814918,0.00218201,0.01194178,-0.02415498,-0.01474
 047,0.01027050,0.05345794,-0.00244719,0.00251580,-0.00200259,-0.011695
 78,-0.01177598,-0.01062099,0.06413832,0.00121198,0.00134427,-0.0046982
 9,-0.01333294,-0.01130157,-0.00977960,0.01116408,0.03447561,-0.0013497
 1,0.00325994,-0.00605060,-0.01053250,-0.00850002,-0.01718000,0.0084147
 2,-0.00845803,0.05642055,-0.00889617,0.01366002,0.00187500,0.00136877,
 -0.00191945,0.00114801,0.00127795,-0.00108017,-0.00070828,0.07094038,0
 .01385626,-0.03028059,-0.00952695,0.00454759,-0.00479304,0.00257459,-0
 .00038228,-0.00291717,-0.00083342,-0.01868326,0.05087813,0.00345962,-0
 .01281321,-0.00548658,-0.00097091,0.00143175,-0.00109840,-0.00720901,0
 .00465198,-0.00404996,0.00980502,-0.00083738,0.07013288,0.00087069,-0.
 00066066,-0.00138808,-0.00952995,0.01335274,0.00864018,-0.02982540,0.0
 0908697,-0.00312805,-0.00629021,-0.00068217,0.00528896,0.07229181,0.00
 225013,-0.00039869,-0.00181375,0.01333162,-0.03880091,-0.01621387,0.00
 913332,-0.00332597,0.00481300,-0.00039777,-0.00535064,0.01564871,-0.00
 628244,0.06749132,0.00485466,-0.00078639,-0.00348872,0.00826734,-0.017
 14750,-0.00573524,-0.00532172,0.00503925,-0.00326721,0.00321168,0.0160
 7708,-0.03247097,-0.02026250,-0.00447123,0.05146428,-0.00089016,-0.003
 10548,-0.00005515,0.00058315,-0.00177895,-0.00364851,0.00153915,0.0000
 3998,-0.00246073,-0.01444068,-0.00417112,-0.01748460,-0.01983366,-0.01
 631098,0.00646054,0.06809500,-0.00119748,-0.00314656,0.00056688,0.0015
 9401,-0.00469841,-0.00401461,0.00024093,-0.00461776,-0.00040570,-0.003
 39296,-0.00531717,-0.00981628,-0.01539446,-0.01765103,0.00338098,0.000
 68076,0.05717537,0.00167806,-0.00594091,-0.00339725,-0.00197020,0.0021
 1782,-0.00033148,-0.00270939,0.00174940,-0.00272699,-0.01793865,-0.010
 03292,-0.02090029,0.00730881,0.00324990,0.00116870,0.00667124,0.015647
 58,0.03283800,-0.01107341,-0.01605992,-0.00192959,-0.00459805,0.000097
 65,0.00183055,0.00123352,0.00342964,-0.00125643,-0.03654336,0.00674504
 ,0.00630473,-0.00142283,-0.00607266,0.00501602,-0.00032600,-0.00133850
 ,0.00305897,0.06840470,-0.01475393,-0.01672251,-0.00052791,-0.00135571
 ,-0.00338989,0.00474171,0.00066204,-0.00287279,0.00059641,0.00927995,0
 .00109392,0.00106128,-0.00104653,-0.00132060,-0.00199032,-0.00146309,-
 0.00248461,-0.00273142,0.00607663,0.04521906,-0.00643157,-0.00429761,-
 0.00574637,0.00158261,0.00060012,-0.00334807,0.00556329,0.00368877,-0.
 00607220,0.00277620,0.00100448,-0.00308693,0.00077282,0.00265207,-0.00
 453997,0.00344633,-0.00087137,-0.00371580,0.00379081,-0.01302934,0.052
 84095,-0.00185725,0.00028609,-0.00016741,-0.00176556,0.00045572,-0.000
 28850,-0.02242845,-0.01338288,0.01044237,-0.00286063,-0.00176788,-0.00
 075273,-0.00303501,-0.00102889,-0.00109352,-0.03595452,0.02005015,0.00
 285466,-0.01258868,-0.00031064,-0.01302742,0.08668332,-0.00149450,-0.0
 0357235,-0.00012916,-0.00274728,-0.00183955,-0.00182904,-0.01451783,-0
 .01182102,0.00921544,0.00181112,0.00125735,0.00210438,0.00087170,-0.00
 029002,-0.00043519,0.02136795,-0.01450914,-0.00419887,0.00069554,-0.00
 104467,0.00327035,0.00558752,0.06170701,-0.00275237,-0.00024173,-0.003
 11402,0.00057867,-0.00030640,0.00113526,0.01281124,0.00916850,-0.01206
 988,-0.00057820,0.00063630,-0.00100533,0.00175629,0.00012043,-0.001178
 25,0.00300152,-0.00338732,-0.00054291,-0.01627346,0.00243543,-0.025361
 67,0.00881099,0.01045128,0.05112925,-0.02189738,0.01060375,-0.01484203
 ,-0.03173502,-0.00809357,0.01549771,-0.00179212,0.00286333,0.00057862,
 -0.00455605,0.00053783,0.00155893,-0.00322544,0.00537766,-0.00113250,0
 .00122771,-0.00124247,0.00104651,-0.00308590,0.00291128,0.00152693,-0.
 00619323,-0.01157421,-0.00735468,0.07125744,0.00671373,-0.00281337,0.0
 0094044,-0.01104572,-0.00474447,0.00230855,0.00295990,0.00103640,0.000
 31238,0.00072251,-0.00457078,-0.00143123,0.00075486,-0.00035344,0.0003
 3331,0.00474095,-0.00475069,0.00013942,0.00642657,-0.01847790,0.006982
 53,-0.00988919,-0.02988761,-0.01887649,-0.00138361,0.06456185,-0.01726
 520,0.00285579,-0.00874636,0.01490011,0.00236735,-0.00274505,0.0010744
 7,-0.00136199,-0.00500370,0.00040922,0.00093823,-0.00203442,0.00101158
 ,-0.00398527,-0.00195262,0.00406935,-0.00110017,-0.00239197,-0.0005416
 1,0.00944417,-0.00096993,-0.00677843,-0.01844919,-0.00899244,0.0031205
 2,0.00929108,0.03283649\\-0.00000846,-0.00003497,-0.00001328,0.0000072
 6,0.00000302,-0.00004074,0.00003952,-0.00004620,0.00003312,-0.00006899
 ,-0.00005550,0.00003433,-0.00000086,0.00000512,0.00006418,0.00004575,0
 .00005037,-0.00005607,0.00003180,0.00017090,0.00003402,-0.00003454,-0.
 00008803,-0.00001472,-0.00001148,-0.00000471,-0.00004085\\\@


 THERE ARE PEOPLE SO ADDICTED TO EXAGERATING THEY
 CAN'T TELL THE TRUTH WITHOUT LYING. -- FORTUNE COOKIE
 Job cpu time:       0 days  8 hours 42 minutes  8.3 seconds.
 File lengths (MBytes):  RWF=    299 Int=      0 D2E=      0 Chk=     16 Scr=      1
 Normal termination of Gaussian 09 at Tue Mar  6 17:47:34 2018.
