 Entering Gaussian System, Link 0=/share/apps/mg09/g09
 Initial command:
 /share/apps//mg09/l1.exe "/state/partition1/gauss_tmp/Gau-2284.inp" -scrdir="/state/partition1/gauss_tmp/"
 Entering Link 1 = /share/apps//mg09/l1.exe PID=      2286.
  
 Copyright (c) 1988,1990,1992,1993,1995,1998,2003,2009,2013,
            Gaussian, Inc.  All Rights Reserved.
  
 This is part of the Gaussian(R) 09 program.  It is based on
 the Gaussian(R) 03 system (copyright 2003, Gaussian, Inc.),
 the Gaussian(R) 98 system (copyright 1998, Gaussian, Inc.),
 the Gaussian(R) 94 system (copyright 1995, Gaussian, Inc.),
 the Gaussian 92(TM) system (copyright 1992, Gaussian, Inc.),
 the Gaussian 90(TM) system (copyright 1990, Gaussian, Inc.),
 the Gaussian 88(TM) system (copyright 1988, Gaussian, Inc.),
 the Gaussian 86(TM) system (copyright 1986, Carnegie Mellon
 University), and the Gaussian 82(TM) system (copyright 1983,
 Carnegie Mellon University). Gaussian is a federally registered
 trademark of Gaussian, Inc.
  
 This software contains proprietary and confidential information,
 including trade secrets, belonging to Gaussian, Inc.
  
 This software is provided under written license and may be
 used, copied, transmitted, or stored only in accord with that
 written license.
  
 The following legend is applicable only to US Government
 contracts under FAR:
  
                    RESTRICTED RIGHTS LEGEND
  
 Use, reproduction and disclosure by the US Government is
 subject to restrictions as set forth in subparagraphs (a)
 and (c) of the Commercial Computer Software - Restricted
 Rights clause in FAR 52.227-19.
  
 Gaussian, Inc.
 340 Quinnipiac St., Bldg. 40, Wallingford CT 06492
  
  
 ---------------------------------------------------------------
 Warning -- This program may not be used in any manner that
 competes with the business of Gaussian, Inc. or will provide
 assistance to any competitor of Gaussian, Inc.  The licensee
 of this program is prohibited from giving any competitor of
 Gaussian, Inc. access to this program.  By using this program,
 the user acknowledges that Gaussian, Inc. is engaged in the
 business of creating and licensing software in the field of
 computational chemistry and represents and warrants to the
 licensee that it is not a competitor of Gaussian, Inc. and that
 it will not use this program in any manner prohibited above.
 ---------------------------------------------------------------
  

 Cite this work as:
 Gaussian 09, Revision D.01,
 M. J. Frisch, G. W. Trucks, H. B. Schlegel, G. E. Scuseria, 
 M. A. Robb, J. R. Cheeseman, G. Scalmani, V. Barone, B. Mennucci, 
 G. A. Petersson, H. Nakatsuji, M. Caricato, X. Li, H. P. Hratchian, 
 A. F. Izmaylov, J. Bloino, G. Zheng, J. L. Sonnenberg, M. Hada, 
 M. Ehara, K. Toyota, R. Fukuda, J. Hasegawa, M. Ishida, T. Nakajima, 
 Y. Honda, O. Kitao, H. Nakai, T. Vreven, J. A. Montgomery, Jr., 
 J. E. Peralta, F. Ogliaro, M. Bearpark, J. J. Heyd, E. Brothers, 
 K. N. Kudin, V. N. Staroverov, T. Keith, R. Kobayashi, J. Normand, 
 K. Raghavachari, A. Rendell, J. C. Burant, S. S. Iyengar, J. Tomasi, 
 M. Cossi, N. Rega, J. M. Millam, M. Klene, J. E. Knox, J. B. Cross, 
 V. Bakken, C. Adamo, J. Jaramillo, R. Gomperts, R. E. Stratmann, 
 O. Yazyev, A. J. Austin, R. Cammi, C. Pomelli, J. W. Ochterski, 
 R. L. Martin, K. Morokuma, V. G. Zakrzewski, G. A. Voth, 
 P. Salvador, J. J. Dannenberg, S. Dapprich, A. D. Daniels, 
 O. Farkas, J. B. Foresman, J. V. Ortiz, J. Cioslowski, 
 and D. J. Fox, Gaussian, Inc., Wallingford CT, 2013.
 
 ******************************************
 Gaussian 09:  ES64L-G09RevD.01 24-Apr-2013
                 6-Mar-2018 
 ******************************************
 %NProcShared=4
 Will use up to    4 processors via shared memory.
 %LindaWorkers=compute-0-1
 %chk=Isomer_41.chk
 %NProc=4
 Will use up to    4 processors via shared memory.
 %mem=4GB
 SetLPE:  input flags=" -vv -opt "Tsnet.Node.lindarsharg: ssh" "
 SetLPE:    new flags=" -vv -opt "Tsnet.Node.lindarsharg: ssh"  -nodelist 'compute-0-1.local'"
 Will use up to    1 processors via Linda.
 ----------------------------------------------------------------------
 #p PBE1PBE/Def2TZVP scf=(maxcycle=768) opt=(cartesian,maxcycle=512) fr
 eq
 ----------------------------------------------------------------------
 1/6=512,10=7,14=-1,18=10,26=3,38=1/1,3;
 2/12=2,17=6,18=5,29=2,40=1/2;
 3/5=44,7=101,11=2,16=1,25=1,30=1,71=1,74=-13/1,2,3;
 4//1;
 5/5=2,7=768,38=5/2;
 6/7=2,8=2,9=2,10=2,28=1/1;
 7/7=1,29=1/1,2,3,16;
 1/6=512,10=7,14=-1,18=10,26=3/3(2);
 2/29=1/2;
 99/12=1/99;
 2/29=1/2;
 3/5=44,7=101,11=2,16=1,25=1,30=1,71=1,74=-13/1,2,3;
 4/5=5,16=3,69=1/1;
 5/5=2,7=768,38=5/2;
 7/7=1/1,2,3,16;
 1/6=512,14=-1,18=10,26=3/3(-5);
 2/29=1/2;
 6/7=2,8=2,9=2,10=2,19=2,28=1/1;
 99/9=1,12=1/99;
 Leave Link    1 at Tue Mar  6 15:01:28 2018, MaxMem=   536870912 cpu:         0.2
 (Enter /share/apps//mg09/l101.exe)
 ---------------------
 01Final_coords.xyz_41
 ---------------------
 Symbolic Z-matrix:
 Charge =  0 Multiplicity = 1
 32                    1.38484   0.16003  -2.28661 
 32                   -0.01535   2.08021   1.84922 
 83                    1.5179   -1.92416  -0.22189 
 50                    0.00615  -0.78682   2.28791 
 32                   -1.39002   0.13882  -2.28635 
 83                   -2.23325   0.93869   0.41051 
 83                   -1.48725  -1.94588  -0.22086 
 50                   -0.01981   2.51629  -1.17141 
 83                    2.21874   0.97227   0.40977 
 
 NAtoms=      9 NQM=        9 NQMF=       0 NMMI=      0 NMMIF=      0
                NMic=       0 NMicF=      0.
                    Isotopes and Nuclear Properties:
 (Nuclear quadrupole moments (NQMom) in fm**2, nuclear magnetic moments (NMagM)
  in nuclear magnetons)

  Atom         1           2           3           4           5           6           7           8           9
 IAtWgt=          74          74         209         118          74         209         209         118         209
 AtmWgt=  73.9211788  73.9211788 208.9804000 117.9018000  73.9211788 208.9804000 208.9804000 117.9018000 208.9804000
 NucSpn=           0           0           9           0           0           9           9           0           9
 AtZEff=   0.0000000   0.0000000   0.0000000   0.0000000   0.0000000   0.0000000   0.0000000   0.0000000   0.0000000
 NQMom=    0.0000000   0.0000000 -51.6000000   0.0000000   0.0000000 -51.6000000 -51.6000000   0.0000000 -51.6000000
 NMagM=    0.0000000   0.0000000   4.1106000   0.0000000   0.0000000   4.1106000   4.1106000   0.0000000   4.1106000
 AtZNuc=  32.0000000  32.0000000  83.0000000  50.0000000  32.0000000  83.0000000  83.0000000  50.0000000  83.0000000
 Leave Link  101 at Tue Mar  6 15:01:28 2018, MaxMem=   536870912 cpu:         0.2
 (Enter /share/apps//mg09/l103.exe)

 GradGradGradGradGradGradGradGradGradGradGradGradGradGradGradGradGradGrad
 Berny optimization.
 Initialization pass.
 No Z-matrix variables, so optimization will use Cartesian coordinates.
 Trust Radius=3.00D-01 FncErr=1.00D-07 GrdErr=1.00D-06
 Number of steps in this run=    100 maximum allowed number of steps=    100.
 GradGradGradGradGradGradGradGradGradGradGradGradGradGradGradGradGradGrad

 Leave Link  103 at Tue Mar  6 15:01:28 2018, MaxMem=   536870912 cpu:         0.1
 (Enter /share/apps//mg09/l202.exe)
 ---------------------------------------------------------------------------------------------------
                            Z-MATRIX (ANGSTROMS AND DEGREES)
   CD    Cent   Atom    N1       Length/X        N2       Alpha/Y        N3        Beta/Z          J
 ---------------------------------------------------------------------------------------------------
      1      1  Ge       0   1.384844          0.160029         -2.286611
      2      2  Ge       0  -0.015349          2.080206          1.849217
      3      3  Bi       0   1.517899         -1.924162         -0.221889
      4      4  Sn       0   0.006145         -0.786815          2.287915
      5      5  Ge       0  -1.390018          0.138821         -2.286355
      6      6  Bi       0  -2.233252          0.938694          0.410507
      7      7  Bi       0  -1.487246         -1.945881         -0.220860
      8      8  Sn       0  -0.019810          2.516289         -1.171407
      9      9  Bi       0   2.218744          0.972272          0.409767
 ---------------------------------------------------------------------------------------------------
                         Z-Matrix orientation:                         
 ---------------------------------------------------------------------
 Center     Atomic      Atomic             Coordinates (Angstroms)
 Number     Number       Type             X           Y           Z
 ---------------------------------------------------------------------
      1         32           0        1.384844    0.160029   -2.286611
      2         32           0       -0.015349    2.080206    1.849217
      3         83           0        1.517899   -1.924162   -0.221889
      4         50           0        0.006145   -0.786815    2.287915
      5         32           0       -1.390018    0.138821   -2.286355
      6         83           0       -2.233252    0.938694    0.410507
      7         83           0       -1.487246   -1.945881   -0.220860
      8         50           0       -0.019810    2.516289   -1.171407
      9         83           0        2.218744    0.972272    0.409767
 ---------------------------------------------------------------------
                    Distance matrix (angstroms):
                    1          2          3          4          5
     1  Ge   0.000000
     2  Ge   4.769978   0.000000
     3  Bi   2.936772   4.761858   0.000000
     4  Sn   4.870689   2.900470   3.142940   0.000000
     5  Ge   2.774943   4.770917   4.119939   4.871347   0.000000
     6  Bi   4.579452   2.879588   4.760988   3.393662   2.936649
     7  Bi   4.117170   4.760365   3.005224   3.141274   2.936274
     8  Sn   2.961198   3.051943   4.794136   4.783103   2.961914
     9  Bi   2.936934   2.879359   3.046228   3.393733   4.581144
                    6          7          8          9
     6  Bi   0.000000
     7  Bi   3.045640   0.000000
     8  Sn   3.144930   4.792480   0.000000
     9  Bi   4.452123   4.758957   3.145667   0.000000
 Stoichiometry    Bi4Ge3Sn2
 Framework group  C1[X(Bi4Ge3Sn2)]
 Deg. of freedom    21
 Full point group                 C1      NOp   1
 Largest Abelian subgroup         C1      NOp   1
 Largest concise Abelian subgroup C1      NOp   1
                         Standard orientation:                         
 ---------------------------------------------------------------------
 Center     Atomic      Atomic             Coordinates (Angstroms)
 Number     Number       Type             X           Y           Z
 ---------------------------------------------------------------------
      1         32           0       -1.384843    0.160033    2.286611
      2         32           0        0.015356    2.080206   -1.849217
      3         83           0       -1.517905   -1.924157    0.221889
      4         50           0       -0.006148   -0.786815   -2.287915
      5         32           0        1.390019    0.138816    2.286355
      6         83           0        2.233255    0.938686   -0.410507
      7         83           0        1.487240   -1.945886    0.220860
      8         50           0        0.019819    2.516289    1.171407
      9         83           0       -2.218741    0.972279   -0.409767
 ---------------------------------------------------------------------
 Rotational constants (GHZ):      0.1013980      0.0972898      0.0791085
 Leave Link  202 at Tue Mar  6 15:01:28 2018, MaxMem=   536870912 cpu:         0.1
 (Enter /share/apps//mg09/l301.exe)
 Standard basis: def2TZVP (5D, 7F)
 Ernie: Thresh=  0.10000D-02 Tol=  0.10000D-05 Strict=F.
 There are   519 symmetry adapted cartesian basis functions of A   symmetry.
 There are   444 symmetry adapted basis functions of A   symmetry.
   444 basis functions,   963 primitive gaussians,   519 cartesian basis functions
   116 alpha electrons      116 beta electrons
       nuclear repulsion energy      3522.5579330501 Hartrees.
 IExCor= 1009 DFT=T Ex+Corr=PBE1PBE ExCW=0 ScaHFX=  0.250000
 ScaDFX=  0.750000  0.750000  1.000000  1.000000 ScalE2=  1.000000  1.000000
 IRadAn=      0 IRanWt=     -1 IRanGd=            0 ICorTp=0 IEmpDi=  4
 NAtoms=    9 NActive=    9 NUniq=    9 SFac= 1.00D+00 NAtFMM=   60 NAOKFM=F Big=F
 Integral buffers will be    131072 words long.
 Raffenetti 2 integral format.
 Two-electron integral symmetry is turned on.
 Leave Link  301 at Tue Mar  6 15:01:28 2018, MaxMem=   536870912 cpu:         0.3
 (Enter /share/apps//mg09/l302.exe)
 NPDir=0 NMtPBC=     1 NCelOv=     1 NCel=       1 NClECP=     1 NCelD=      1
         NCelK=      1 NCelE2=     1 NClLst=     1 CellRange=     0.0.
 One-electron integrals computed using PRISM.
   1 Symmetry operations used in ECPInt.
 ECPInt:  NShTT=   10440 NPrTT=   41973 LenC2=    9661 LenP2D=   27444.
 LDataN:  DoStor=T MaxTD1= 8 Len=  415
 NBasis=   444 RedAO= T EigKep=  1.64D-03  NBF=   444
 NBsUse=   444 1.00D-06 EigRej= -1.00D+00 NBFU=   444
 Precomputing XC quadrature grid using
 IXCGrd= 4 IRadAn=           0 IRanWt=          -1 IRanGd=           0 AccXCQ= 0.00D+00.
 Defaulting to unpruned grid for atomic number  83.
 Defaulting to unpruned grid for atomic number  50.
 Defaulting to unpruned grid for atomic number  83.
 Generated NRdTot=       0 NPtTot=           0 NUsed=           0 NTot=          32
 NSgBfM=   500   500   500   500   500 MxSgAt=     9 MxSgA2=     9.
 Leave Link  302 at Tue Mar  6 15:01:42 2018, MaxMem=   536870912 cpu:        43.4
 (Enter /share/apps//mg09/l303.exe)
 DipDrv:  MaxL=1.
 Leave Link  303 at Tue Mar  6 15:01:42 2018, MaxMem=   536870912 cpu:         0.3
 (Enter /share/apps//mg09/l401.exe)
 ExpMin= 4.62D-02 ExpMax= 4.66D+05 ExpMxC= 4.50D+03 IAcc=2 IRadAn=         4 AccDes= 0.00D+00
 Harris functional with IExCor= 1009 and IRadAn=       4 diagonalized for initial guess.
 HarFok:  IExCor= 1009 AccDes= 0.00D+00 IRadAn=         4 IDoV= 1 UseB2=F ITyADJ=14
 ICtDFT=  3500011 ScaDFX=  1.000000  1.000000  1.000000  1.000000
 Defaulting to unpruned grid for atomic number  83.
 Defaulting to unpruned grid for atomic number  83.
 Defaulting to unpruned grid for atomic number  83.
 Defaulting to unpruned grid for atomic number  83.
 FoFCou: FMM=F IPFlag=           0 FMFlag=      100000 FMFlg1=           0
         NFxFlg=           0 DoJE=T BraDBF=F KetDBF=T FulRan=T
         wScrn=  0.000000 ICntrl=     500 IOpCl=  0 I1Cent=   200000004 NGrid=           0
         NMat0=    1 NMatS0=      1 NMatT0=    0 NMatD0=    1 NMtDS0=    0 NMtDT0=    0
 Petite list used in FoFCou.
 Harris En= -7518.60419906422    
 JPrj=0 DoOrth=F DoCkMO=F.
 Leave Link  401 at Tue Mar  6 15:01:45 2018, MaxMem=   536870912 cpu:        11.6
 (Enter /share/apps//mg09/l502.exe)
 Closed shell SCF:
 Using DIIS extrapolation, IDIIS=  1040.
 Integral symmetry usage will be decided dynamically.
 IVT=     1410107 IEndB=     1410107 NGot=   536870912 MDV=   536322046
 LenX=   536322046 LenY=   536052166
 Requested convergence on RMS density matrix=1.00D-08 within 768 cycles.
 Requested convergence on MAX density matrix=1.00D-06.
 Requested convergence on             energy=1.00D-06.
 No special actions if energy rises.
 Fock matrices will be formed incrementally for  20 cycles.

 Cycle   1  Pass 1  IDiag  1:
 FoFJK:  IHMeth= 1 ICntrl=       0 DoSepK=F KAlg= 0 I1Cent=   0 FoldK=F
 IRaf= 880000000 NMat=   1 IRICut=       1 DoRegI=T DoRafI=F ISym2E= 0.
 FoFCou: FMM=F IPFlag=           0 FMFlag=      100000 FMFlg1=           0
         NFxFlg=           0 DoJE=F BraDBF=F KetDBF=F FulRan=T
         wScrn=  0.000000 ICntrl=       0 IOpCl=  0 I1Cent=           0 NGrid=           0
         NMat0=    1 NMatS0=      1 NMatT0=    0 NMatD0=    1 NMtDS0=    0 NMtDT0=    0
 Symmetry not used in FoFCou.
 Defaulting to unpruned grid for atomic number  83.
 Defaulting to unpruned grid for atomic number  83.
 Defaulting to unpruned grid for atomic number  83.
 Defaulting to unpruned grid for atomic number  83.
 E= -7517.25341061517    
 DIIS: error= 3.37D-02 at cycle   1 NSaved=   1.
 NSaved= 1 IEnMin= 1 EnMin= -7517.25341061517     IErMin= 1 ErrMin= 3.37D-02
 ErrMax= 3.37D-02  0.00D+00 EMaxC= 1.00D-01 BMatC= 1.44D+00 BMatP= 1.44D+00
 IDIUse=3 WtCom= 6.63D-01 WtEn= 3.37D-01
 Coeff-Com:  0.100D+01
 Coeff-En:   0.100D+01
 Coeff:      0.100D+01
 Gap=     0.114 Goal=   None    Shift=    0.000
 GapD=    0.114 DampG=1.000 DampE=0.500 DampFc=0.5000 IDamp=-1.
 Damping current iteration by 5.00D-01
 RMSDP=5.74D-03 MaxDP=2.34D-01              OVMax= 9.86D-01

 Cycle   2  Pass 1  IDiag  1:
 RMSU=  2.86D-03    CP:  1.01D+00
 E= -7517.07299155217     Delta-E=        0.180419062997 Rises=F Damp=T
 DIIS: error= 1.56D-02 at cycle   2 NSaved=   2.
 NSaved= 2 IEnMin= 1 EnMin= -7517.25341061517     IErMin= 2 ErrMin= 1.56D-02
 ErrMax= 1.56D-02  0.00D+00 EMaxC= 1.00D-01 BMatC= 2.56D-01 BMatP= 1.44D+00
 IDIUse=3 WtCom= 8.44D-01 WtEn= 1.56D-01
 Coeff-Com:  0.128D+00 0.872D+00
 Coeff-En:   0.607D+00 0.393D+00
 Coeff:      0.203D+00 0.797D+00
 Gap=    -0.242 Goal=   None    Shift=    0.000
 RMSDP=3.79D-03 MaxDP=2.05D-01 DE= 1.80D-01 OVMax= 6.67D-01

 Cycle   3  Pass 1  IDiag  1:
 RMSU=  2.99D-03    CP:  1.01D+00  1.89D-01
 E= -7516.05175140553     Delta-E=        1.021240146636 Rises=F Damp=F
 DIIS: error= 3.81D-02 at cycle   3 NSaved=   3.
 NSaved= 3 IEnMin= 1 EnMin= -7517.25341061517     IErMin= 2 ErrMin= 1.56D-02
 ErrMax= 3.81D-02  0.00D+00 EMaxC= 1.00D-01 BMatC= 1.31D+00 BMatP= 2.56D-01
 IDIUse=2 WtCom= 0.00D+00 WtEn= 1.00D+00
 EnCoef did    12 forward-backward iterations
 Coeff-En:   0.449D+00 0.444D+00 0.107D+00
 Coeff:      0.449D+00 0.444D+00 0.107D+00
 Gap=     0.184 Goal=   None    Shift=    0.000
 RMSDP=3.20D-03 MaxDP=1.59D-01 DE= 1.02D+00 OVMax= 4.13D-01

 Cycle   4  Pass 1  IDiag  1:
 RMSU=  1.66D-03    CP:  1.01D+00  7.25D-01  2.46D-01
 E= -7517.72454919337     Delta-E=       -1.672797787840 Rises=F Damp=F
 DIIS: error= 8.90D-03 at cycle   4 NSaved=   4.
 NSaved= 4 IEnMin= 4 EnMin= -7517.72454919337     IErMin= 4 ErrMin= 8.90D-03
 ErrMax= 8.90D-03  0.00D+00 EMaxC= 1.00D-01 BMatC= 1.88D-01 BMatP= 2.56D-01
 IDIUse=3 WtCom= 9.11D-01 WtEn= 8.90D-02
 Coeff-Com:  0.309D+00-0.169D+00-0.344D-01 0.894D+00
 Coeff-En:   0.830D-01 0.000D+00 0.000D+00 0.917D+00
 Coeff:      0.289D+00-0.154D+00-0.313D-01 0.896D+00
 Gap=     0.106 Goal=   None    Shift=    0.000
 RMSDP=1.02D-03 MaxDP=5.71D-02 DE=-1.67D+00 OVMax= 5.84D-02

 Cycle   5  Pass 1  IDiag  1:
 RMSU=  6.46D-04    CP:  1.00D+00  5.45D-01  1.11D-01  7.49D-01
 E= -7517.78250851504     Delta-E=       -0.057959321664 Rises=F Damp=F
 DIIS: error= 3.77D-03 at cycle   5 NSaved=   5.
 NSaved= 5 IEnMin= 5 EnMin= -7517.78250851504     IErMin= 5 ErrMin= 3.77D-03
 ErrMax= 3.77D-03  0.00D+00 EMaxC= 1.00D-01 BMatC= 2.79D-02 BMatP= 1.88D-01
 IDIUse=3 WtCom= 9.62D-01 WtEn= 3.77D-02
 Coeff-Com:  0.146D+00-0.161D+00-0.120D-01 0.507D+00 0.520D+00
 Coeff-En:   0.000D+00 0.000D+00 0.000D+00 0.101D+00 0.899D+00
 Coeff:      0.141D+00-0.155D+00-0.115D-01 0.492D+00 0.534D+00
 Gap=     0.122 Goal=   None    Shift=    0.000
 RMSDP=5.47D-04 MaxDP=3.42D-02 DE=-5.80D-02 OVMax= 5.21D-02

 Cycle   6  Pass 1  IDiag  1:
 RMSU=  3.29D-04    CP:  1.00D+00  5.16D-01  1.42D-01  7.66D-01  3.62D-01
 E= -7517.80302888568     Delta-E=       -0.020520370639 Rises=F Damp=F
 DIIS: error= 2.57D-03 at cycle   6 NSaved=   6.
 NSaved= 6 IEnMin= 6 EnMin= -7517.80302888568     IErMin= 6 ErrMin= 2.57D-03
 ErrMax= 2.57D-03  0.00D+00 EMaxC= 1.00D-01 BMatC= 6.23D-03 BMatP= 2.79D-02
 IDIUse=3 WtCom= 9.74D-01 WtEn= 2.57D-02
 Coeff-Com:  0.612D-01-0.954D-01 0.798D-02 0.226D+00 0.338D+00 0.462D+00
 Coeff-En:   0.000D+00 0.000D+00 0.000D+00 0.000D+00 0.124D+00 0.876D+00
 Coeff:      0.596D-01-0.930D-01 0.777D-02 0.221D+00 0.332D+00 0.472D+00
 Gap=     0.121 Goal=   None    Shift=    0.000
 RMSDP=2.90D-04 MaxDP=1.15D-02 DE=-2.05D-02 OVMax= 3.86D-02

 Cycle   7  Pass 1  IDiag  1:
 RMSU=  1.94D-04    CP:  1.00D+00  5.17D-01  1.51D-01  7.50D-01  5.03D-01
                    CP:  4.28D-01
 E= -7517.80542915933     Delta-E=       -0.002400273659 Rises=F Damp=F
 DIIS: error= 2.43D-03 at cycle   7 NSaved=   7.
 NSaved= 7 IEnMin= 7 EnMin= -7517.80542915933     IErMin= 7 ErrMin= 2.43D-03
 ErrMax= 2.43D-03  0.00D+00 EMaxC= 1.00D-01 BMatC= 3.47D-03 BMatP= 6.23D-03
 IDIUse=3 WtCom= 9.76D-01 WtEn= 2.43D-02
 Coeff-Com:  0.335D-01-0.637D-01 0.908D-02 0.119D+00 0.192D+00 0.404D+00
 Coeff-Com:  0.306D+00
 Coeff-En:   0.000D+00 0.000D+00 0.000D+00 0.000D+00 0.000D+00 0.411D+00
 Coeff-En:   0.589D+00
 Coeff:      0.327D-01-0.622D-01 0.886D-02 0.116D+00 0.187D+00 0.404D+00
 Coeff:      0.313D+00
 Gap=     0.118 Goal=   None    Shift=    0.000
 RMSDP=1.66D-04 MaxDP=6.70D-03 DE=-2.40D-03 OVMax= 2.17D-02

 Cycle   8  Pass 1  IDiag  1:
 RMSU=  6.32D-05    CP:  1.00D+00  5.14D-01  1.62D-01  7.48D-01  4.90D-01
                    CP:  6.02D-01  2.90D-01
 E= -7517.80977549449     Delta-E=       -0.004346335150 Rises=F Damp=F
 DIIS: error= 6.02D-04 at cycle   8 NSaved=   8.
 NSaved= 8 IEnMin= 8 EnMin= -7517.80977549449     IErMin= 8 ErrMin= 6.02D-04
 ErrMax= 6.02D-04  0.00D+00 EMaxC= 1.00D-01 BMatC= 2.40D-04 BMatP= 3.47D-03
 IDIUse=3 WtCom= 9.94D-01 WtEn= 6.02D-03
 Coeff-Com:  0.117D-01-0.229D-01 0.600D-02 0.324D-01 0.336D-01 0.148D+00
 Coeff-Com:  0.204D+00 0.587D+00
 Coeff-En:   0.000D+00 0.000D+00 0.000D+00 0.000D+00 0.000D+00 0.000D+00
 Coeff-En:   0.196D-01 0.980D+00
 Coeff:      0.116D-01-0.228D-01 0.596D-02 0.322D-01 0.334D-01 0.147D+00
 Coeff:      0.203D+00 0.589D+00
 Gap=     0.118 Goal=   None    Shift=    0.000
 RMSDP=4.41D-05 MaxDP=1.63D-03 DE=-4.35D-03 OVMax= 5.60D-03

 Cycle   9  Pass 1  IDiag  1:
 RMSU=  2.49D-05    CP:  1.00D+00  5.11D-01  1.68D-01  7.47D-01  4.71D-01
                    CP:  6.03D-01  4.24D-01  8.40D-01
 E= -7517.81007811326     Delta-E=       -0.000302618771 Rises=F Damp=F
 DIIS: error= 1.78D-04 at cycle   9 NSaved=   9.
 NSaved= 9 IEnMin= 9 EnMin= -7517.81007811326     IErMin= 9 ErrMin= 1.78D-04
 ErrMax= 1.78D-04  0.00D+00 EMaxC= 1.00D-01 BMatC= 3.00D-05 BMatP= 2.40D-04
 IDIUse=3 WtCom= 9.98D-01 WtEn= 1.78D-03
 Coeff-Com:  0.297D-02-0.665D-02 0.164D-03 0.203D-02-0.205D-01-0.195D-02
 Coeff-Com:  0.498D-01 0.327D+00 0.647D+00
 Coeff-En:   0.000D+00 0.000D+00 0.000D+00 0.000D+00 0.000D+00 0.000D+00
 Coeff-En:   0.000D+00 0.000D+00 0.100D+01
 Coeff:      0.296D-02-0.663D-02 0.163D-03 0.203D-02-0.205D-01-0.195D-02
 Coeff:      0.498D-01 0.326D+00 0.648D+00
 Gap=     0.117 Goal=   None    Shift=    0.000
 RMSDP=1.45D-05 MaxDP=8.62D-04 DE=-3.03D-04 OVMax= 1.28D-03

 Cycle  10  Pass 1  IDiag  1:
 RMSU=  8.75D-06    CP:  1.00D+00  5.11D-01  1.67D-01  7.46D-01  4.63D-01
                    CP:  6.08D-01  4.15D-01  9.18D-01  7.01D-01
 E= -7517.81009166801     Delta-E=       -0.000013554756 Rises=F Damp=F
 DIIS: error= 1.26D-04 at cycle  10 NSaved=  10.
 NSaved=10 IEnMin=10 EnMin= -7517.81009166801     IErMin=10 ErrMin= 1.26D-04
 ErrMax= 1.26D-04  0.00D+00 EMaxC= 1.00D-01 BMatC= 8.34D-06 BMatP= 3.00D-05
 IDIUse=3 WtCom= 9.99D-01 WtEn= 1.26D-03
 Coeff-Com:  0.609D-04-0.217D-03 0.273D-03-0.410D-02-0.189D-01-0.236D-01
 Coeff-Com:  0.586D-02 0.124D+00 0.389D+00 0.527D+00
 Coeff-En:   0.000D+00 0.000D+00 0.000D+00 0.000D+00 0.000D+00 0.000D+00
 Coeff-En:   0.000D+00 0.000D+00 0.238D+00 0.762D+00
 Coeff:      0.608D-04-0.216D-03 0.273D-03-0.409D-02-0.189D-01-0.235D-01
 Coeff:      0.585D-02 0.124D+00 0.389D+00 0.528D+00
 Gap=     0.117 Goal=   None    Shift=    0.000
 RMSDP=8.18D-06 MaxDP=3.99D-04 DE=-1.36D-05 OVMax= 1.01D-03

 Cycle  11  Pass 1  IDiag  1:
 RMSU=  3.51D-06    CP:  1.00D+00  5.10D-01  1.68D-01  7.44D-01  4.63D-01
                    CP:  6.06D-01  4.24D-01  9.33D-01  8.28D-01  6.23D-01
 E= -7517.81010237365     Delta-E=       -0.000010705635 Rises=F Damp=F
 DIIS: error= 1.62D-05 at cycle  11 NSaved=  11.
 NSaved=11 IEnMin=11 EnMin= -7517.81010237365     IErMin=11 ErrMin= 1.62D-05
 ErrMax= 1.62D-05  0.00D+00 EMaxC= 1.00D-01 BMatC= 2.86D-07 BMatP= 8.34D-06
 IDIUse=1 WtCom= 1.00D+00 WtEn= 0.00D+00
 Coeff-Com: -0.227D-04 0.461D-04 0.987D-04-0.134D-02-0.603D-02-0.987D-02
 Coeff-Com: -0.184D-02 0.242D-01 0.115D+00 0.269D+00 0.611D+00
 Coeff:     -0.227D-04 0.461D-04 0.987D-04-0.134D-02-0.603D-02-0.987D-02
 Coeff:     -0.184D-02 0.242D-01 0.115D+00 0.269D+00 0.611D+00
 Gap=     0.117 Goal=   None    Shift=    0.000
 RMSDP=1.81D-06 MaxDP=1.32D-04 DE=-1.07D-05 OVMax= 1.68D-04

 Cycle  12  Pass 1  IDiag  1:
 RMSU=  1.38D-06    CP:  1.00D+00  5.10D-01  1.68D-01  7.44D-01  4.63D-01
                    CP:  6.05D-01  4.24D-01  9.39D-01  8.14D-01  6.82D-01
                    CP:  7.88D-01
 E= -7517.81010253938     Delta-E=       -0.000000165728 Rises=F Damp=F
 DIIS: error= 7.88D-06 at cycle  12 NSaved=  12.
 NSaved=12 IEnMin=12 EnMin= -7517.81010253938     IErMin=12 ErrMin= 7.88D-06
 ErrMax= 7.88D-06  0.00D+00 EMaxC= 1.00D-01 BMatC= 7.47D-08 BMatP= 2.86D-07
 IDIUse=1 WtCom= 1.00D+00 WtEn= 0.00D+00
 Coeff-Com:  0.225D-04-0.331D-04 0.190D-04-0.385D-03-0.221D-02-0.401D-02
 Coeff-Com: -0.175D-02 0.563D-02 0.401D-01 0.124D+00 0.400D+00 0.438D+00
 Coeff:      0.225D-04-0.331D-04 0.190D-04-0.385D-03-0.221D-02-0.401D-02
 Coeff:     -0.175D-02 0.563D-02 0.401D-01 0.124D+00 0.400D+00 0.438D+00
 Gap=     0.117 Goal=   None    Shift=    0.000
 RMSDP=1.14D-06 MaxDP=5.62D-05 DE=-1.66D-07 OVMax= 1.21D-04

 Cycle  13  Pass 1  IDiag  1:
 RMSU=  7.53D-07    CP:  1.00D+00  5.10D-01  1.68D-01  7.44D-01  4.63D-01
                    CP:  6.05D-01  4.24D-01  9.39D-01  8.19D-01  6.89D-01
                    CP:  8.51D-01  4.24D-01
 E= -7517.81010259798     Delta-E=       -0.000000058602 Rises=F Damp=F
 DIIS: error= 5.73D-06 at cycle  13 NSaved=  13.
 NSaved=13 IEnMin=13 EnMin= -7517.81010259798     IErMin=13 ErrMin= 5.73D-06
 ErrMax= 5.73D-06  0.00D+00 EMaxC= 1.00D-01 BMatC= 3.16D-08 BMatP= 7.47D-08
 IDIUse=1 WtCom= 1.00D+00 WtEn= 0.00D+00
 Coeff-Com:  0.231D-04-0.307D-04-0.725D-05 0.764D-05-0.345D-03-0.779D-03
 Coeff-Com: -0.114D-02-0.124D-02 0.461D-02 0.326D-01 0.173D+00 0.376D+00
 Coeff-Com:  0.417D+00
 Coeff:      0.231D-04-0.307D-04-0.725D-05 0.764D-05-0.345D-03-0.779D-03
 Coeff:     -0.114D-02-0.124D-02 0.461D-02 0.326D-01 0.173D+00 0.376D+00
 Coeff:      0.417D+00
 Gap=     0.117 Goal=   None    Shift=    0.000
 RMSDP=5.60D-07 MaxDP=2.73D-05 DE=-5.86D-08 OVMax= 5.79D-05

 Cycle  14  Pass 1  IDiag  1:
 RMSU=  2.67D-07    CP:  1.00D+00  5.10D-01  1.68D-01  7.44D-01  4.63D-01
                    CP:  6.05D-01  4.24D-01  9.39D-01  8.21D-01  6.95D-01
                    CP:  8.55D-01  6.35D-01  5.01D-01
 E= -7517.81010263843     Delta-E=       -0.000000040456 Rises=F Damp=F
 DIIS: error= 1.38D-06 at cycle  14 NSaved=  14.
 NSaved=14 IEnMin=14 EnMin= -7517.81010263843     IErMin=14 ErrMin= 1.38D-06
 ErrMax= 1.38D-06  0.00D+00 EMaxC= 1.00D-01 BMatC= 2.43D-09 BMatP= 3.16D-08
 IDIUse=1 WtCom= 1.00D+00 WtEn= 0.00D+00
 Coeff-Com:  0.306D-05 0.493D-05-0.252D-05 0.469D-04 0.138D-03 0.739D-04
 Coeff-Com: -0.654D-03-0.224D-02-0.325D-02 0.287D-02 0.598D-01 0.187D+00
 Coeff-Com:  0.272D+00 0.484D+00
 Coeff:      0.306D-05 0.493D-05-0.252D-05 0.469D-04 0.138D-03 0.739D-04
 Coeff:     -0.654D-03-0.224D-02-0.325D-02 0.287D-02 0.598D-01 0.187D+00
 Coeff:      0.272D+00 0.484D+00
 Gap=     0.117 Goal=   None    Shift=    0.000
 RMSDP=1.64D-07 MaxDP=1.07D-05 DE=-4.05D-08 OVMax= 1.66D-05

 Cycle  15  Pass 1  IDiag  1:
 RMSU=  8.05D-08    CP:  1.00D+00  5.10D-01  1.68D-01  7.44D-01  4.63D-01
                    CP:  6.05D-01  4.24D-01  9.39D-01  8.21D-01  6.95D-01
                    CP:  8.68D-01  6.48D-01  6.01D-01  6.62D-01
 E= -7517.81010264168     Delta-E=       -0.000000003247 Rises=F Damp=F
 DIIS: error= 4.35D-07 at cycle  15 NSaved=  15.
 NSaved=15 IEnMin=15 EnMin= -7517.81010264168     IErMin=15 ErrMin= 4.35D-07
 ErrMax= 4.35D-07  0.00D+00 EMaxC= 1.00D-01 BMatC= 2.10D-10 BMatP= 2.43D-09
 IDIUse=1 WtCom= 1.00D+00 WtEn= 0.00D+00
 Coeff-Com: -0.115D-05 0.462D-05-0.268D-05 0.318D-04 0.156D-03 0.220D-03
 Coeff-Com: -0.110D-03-0.829D-03-0.249D-02-0.527D-02-0.427D-03 0.342D-01
 Coeff-Com:  0.716D-01 0.246D+00 0.657D+00
 Coeff:     -0.115D-05 0.462D-05-0.268D-05 0.318D-04 0.156D-03 0.220D-03
 Coeff:     -0.110D-03-0.829D-03-0.249D-02-0.527D-02-0.427D-03 0.342D-01
 Coeff:      0.716D-01 0.246D+00 0.657D+00
 Gap=     0.117 Goal=   None    Shift=    0.000
 RMSDP=5.12D-08 MaxDP=2.38D-06 DE=-3.25D-09 OVMax= 5.74D-06

 Cycle  16  Pass 1  IDiag  1:
 RMSU=  2.75D-08    CP:  1.00D+00  5.10D-01  1.68D-01  7.44D-01  4.63D-01
                    CP:  6.05D-01  4.24D-01  9.39D-01  8.22D-01  6.95D-01
                    CP:  8.72D-01  6.55D-01  6.07D-01  7.48D-01  9.06D-01
 E= -7517.81010264172     Delta-E=       -0.000000000036 Rises=F Damp=F
 DIIS: error= 1.28D-07 at cycle  16 NSaved=  16.
 NSaved=16 IEnMin=16 EnMin= -7517.81010264172     IErMin=16 ErrMin= 1.28D-07
 ErrMax= 1.28D-07  0.00D+00 EMaxC= 1.00D-01 BMatC= 1.48D-11 BMatP= 2.10D-10
 IDIUse=1 WtCom= 1.00D+00 WtEn= 0.00D+00
 Coeff-Com: -0.926D-06 0.176D-05-0.666D-06 0.831D-05 0.509D-04 0.825D-04
 Coeff-Com:  0.200D-04-0.102D-03-0.618D-03-0.183D-02-0.554D-02-0.576D-02
 Coeff-Com:  0.136D-03 0.452D-01 0.229D+00 0.739D+00
 Coeff:     -0.926D-06 0.176D-05-0.666D-06 0.831D-05 0.509D-04 0.825D-04
 Coeff:      0.200D-04-0.102D-03-0.618D-03-0.183D-02-0.554D-02-0.576D-02
 Coeff:      0.136D-03 0.452D-01 0.229D+00 0.739D+00
 Gap=     0.117 Goal=   None    Shift=    0.000
 RMSDP=1.57D-08 MaxDP=7.33D-07 DE=-3.64D-11 OVMax= 2.52D-06

 Cycle  17  Pass 1  IDiag  1:
 RMSU=  7.90D-09    CP:  1.00D+00  5.10D-01  1.68D-01  7.44D-01  4.63D-01
                    CP:  6.05D-01  4.24D-01  9.39D-01  8.21D-01  6.96D-01
                    CP:  8.73D-01  6.59D-01  6.14D-01  7.57D-01  9.73D-01
                    CP:  9.92D-01
 E= -7517.81010264144     Delta-E=        0.000000000273 Rises=F Damp=F
 DIIS: error= 3.01D-08 at cycle  17 NSaved=  17.
 NSaved=17 IEnMin=16 EnMin= -7517.81010264172     IErMin=17 ErrMin= 3.01D-08
 ErrMax= 3.01D-08  0.00D+00 EMaxC= 1.00D-01 BMatC= 1.19D-12 BMatP= 1.48D-11
 IDIUse=1 WtCom= 1.00D+00 WtEn= 0.00D+00
 Coeff-Com: -0.233D-06 0.200D-06-0.330D-07-0.705D-06-0.377D-06 0.403D-05
 Coeff-Com:  0.117D-04 0.544D-04 0.543D-04 0.562D-04-0.151D-02-0.490D-02
 Coeff-Com: -0.639D-02-0.942D-02-0.787D-02 0.221D+00 0.809D+00
 Coeff:     -0.233D-06 0.200D-06-0.330D-07-0.705D-06-0.377D-06 0.403D-05
 Coeff:      0.117D-04 0.544D-04 0.543D-04 0.562D-04-0.151D-02-0.490D-02
 Coeff:     -0.639D-02-0.942D-02-0.787D-02 0.221D+00 0.809D+00
 Gap=     0.117 Goal=   None    Shift=    0.000
 RMSDP=5.10D-09 MaxDP=2.66D-07 DE= 2.73D-10 OVMax= 7.30D-07

 SCF Done:  E(RPBE1PBE) =  -7517.81010264     A.U. after   17 cycles
            NFock= 17  Conv=0.51D-08     -V/T= 2.1285
 KE= 6.661981219652D+03 PE=-2.463670277269D+04 EE= 6.934353517350D+03
 Leave Link  502 at Tue Mar  6 15:17:56 2018, MaxMem=   536870912 cpu:      3560.7
 (Enter /share/apps//mg09/l601.exe)
 Copying SCF densities to generalized density rwf, IOpCl= 0 IROHF=0.

 **********************************************************************

            Population analysis using the SCF density.

 **********************************************************************

 Orbital symmetries:
       Occupied  (A) (A) (A) (A) (A) (A) (A) (A) (A) (A) (A) (A)
                 (A) (A) (A) (A) (A) (A) (A) (A) (A) (A) (A) (A)
                 (A) (A) (A) (A) (A) (A) (A) (A) (A) (A) (A) (A)
                 (A) (A) (A) (A) (A) (A) (A) (A) (A) (A) (A) (A)
                 (A) (A) (A) (A) (A) (A) (A) (A) (A) (A) (A) (A)
                 (A) (A) (A) (A) (A) (A) (A) (A) (A) (A) (A) (A)
                 (A) (A) (A) (A) (A) (A) (A) (A) (A) (A) (A) (A)
                 (A) (A) (A) (A) (A) (A) (A) (A) (A) (A) (A) (A)
                 (A) (A) (A) (A) (A) (A) (A) (A) (A) (A) (A) (A)
                 (A) (A) (A) (A) (A) (A) (A) (A)
       Virtual   (A) (A) (A) (A) (A) (A) (A) (A) (A) (A) (A) (A)
                 (A) (A) (A) (A) (A) (A) (A) (A) (A) (A) (A) (A)
                 (A) (A) (A) (A) (A) (A) (A) (A) (A) (A) (A) (A)
                 (A) (A) (A) (A) (A) (A) (A) (A) (A) (A) (A) (A)
                 (A) (A) (A) (A) (A) (A) (A) (A) (A) (A) (A) (A)
                 (A) (A) (A) (A) (A) (A) (A) (A) (A) (A) (A) (A)
                 (A) (A) (A) (A) (A) (A) (A) (A) (A) (A) (A) (A)
                 (A) (A) (A) (A) (A) (A) (A) (A) (A) (A) (A) (A)
                 (A) (A) (A) (A) (A) (A) (A) (A) (A) (A) (A) (A)
                 (A) (A) (A) (A) (A) (A) (A) (A) (A) (A) (A) (A)
                 (A) (A) (A) (A) (A) (A) (A) (A) (A) (A) (A) (A)
                 (A) (A) (A) (A) (A) (A) (A) (A) (A) (A) (A) (A)
                 (A) (A) (A) (A) (A) (A) (A) (A) (A) (A) (A) (A)
                 (A) (A) (A) (A) (A) (A) (A) (A) (A) (A) (A) (A)
                 (A) (A) (A) (A) (A) (A) (A) (A) (A) (A) (A) (A)
                 (A) (A) (A) (A) (A) (A) (A) (A) (A) (A) (A) (A)
                 (A) (A) (A) (A) (A) (A) (A) (A) (A) (A) (A) (A)
                 (A) (A) (A) (A) (A) (A) (A) (A) (A) (A) (A) (A)
                 (A) (A) (A) (A) (A) (A) (A) (A) (A) (A) (A) (A)
                 (A) (A) (A) (A) (A) (A) (A) (A) (A) (A) (A) (A)
                 (A) (A) (A) (A) (A) (A) (A) (A) (A) (A) (A) (A)
                 (A) (A) (A) (A) (A) (A) (A) (A) (A) (A) (A) (A)
                 (A) (A) (A) (A) (A) (A) (A) (A) (A) (A) (A) (A)
                 (A) (A) (A) (A) (A) (A) (A) (A) (A) (A) (A) (A)
                 (A) (A) (A) (A) (A) (A) (A) (A) (A) (A) (A) (A)
                 (A) (A) (A) (A) (A) (A) (A) (A) (A) (A) (A) (A)
                 (A) (A) (A) (A) (A) (A) (A) (A) (A) (A) (A) (A)
                 (A) (A) (A) (A)
 The electronic state is 1-A.
 Alpha  occ. eigenvalues -- -399.09416-399.08727-399.08725 -49.91024 -49.90312
 Alpha  occ. eigenvalues --  -49.90310 -44.39100 -44.39076 -44.39048 -44.38402
 Alpha  occ. eigenvalues --  -44.38399 -44.38379 -44.38377 -44.38318 -44.38316
 Alpha  occ. eigenvalues --   -6.27531  -6.26813  -6.26810  -6.02104  -6.02103
 Alpha  occ. eigenvalues --   -6.01846  -6.01845  -5.14273  -5.13471  -4.42977
 Alpha  occ. eigenvalues --   -4.42885  -4.42794  -4.42292  -4.42289  -4.42212
 Alpha  occ. eigenvalues --   -4.42209  -4.41999  -4.41995  -3.74441  -3.74440
 Alpha  occ. eigenvalues --   -3.74205  -3.74204  -3.74139  -3.74128  -3.74086
 Alpha  occ. eigenvalues --   -3.74085  -3.74026  -3.74017  -3.73790  -3.73787
 Alpha  occ. eigenvalues --   -3.47528  -3.47403  -3.47230  -3.46713  -3.46591
 Alpha  occ. eigenvalues --   -3.46463  -1.22425  -1.22418  -1.22342  -1.22265
 Alpha  occ. eigenvalues --   -1.22236  -1.21782  -1.21774  -1.21755  -1.21752
 Alpha  occ. eigenvalues --   -1.21678  -1.21547  -1.21541  -1.21496  -1.21444
 Alpha  occ. eigenvalues --   -1.21341  -1.08638  -1.08442  -1.08263  -1.08095
 Alpha  occ. eigenvalues --   -1.08093  -1.07963  -1.07942  -1.07787  -1.07744
 Alpha  occ. eigenvalues --   -1.07727  -1.07712  -1.07659  -1.07625  -1.07514
 Alpha  occ. eigenvalues --   -1.07460  -1.07385  -1.07328  -1.07304  -1.07205
 Alpha  occ. eigenvalues --   -1.07088  -1.03690  -1.03689  -1.03526  -1.03447
 Alpha  occ. eigenvalues --   -1.03421  -1.02891  -1.02885  -1.02800  -1.02688
 Alpha  occ. eigenvalues --   -1.02633  -0.66827  -0.62475  -0.60245  -0.54541
 Alpha  occ. eigenvalues --   -0.52148  -0.47646  -0.43098  -0.42241  -0.40410
 Alpha  occ. eigenvalues --   -0.28926  -0.28060  -0.27025  -0.25486  -0.24979
 Alpha  occ. eigenvalues --   -0.24065  -0.23252  -0.22653  -0.22137  -0.21112
 Alpha  occ. eigenvalues --   -0.19415
 Alpha virt. eigenvalues --   -0.07685  -0.07673  -0.07130  -0.06910  -0.05834
 Alpha virt. eigenvalues --   -0.05617  -0.05295  -0.04788  -0.04588  -0.03714
 Alpha virt. eigenvalues --   -0.02965  -0.02490  -0.00524   0.03829   0.05058
 Alpha virt. eigenvalues --    0.05491   0.06313   0.07970   0.08749   0.08813
 Alpha virt. eigenvalues --    0.09241   0.09508   0.09582   0.09910   0.09962
 Alpha virt. eigenvalues --    0.10863   0.11600   0.11725   0.12505   0.12542
 Alpha virt. eigenvalues --    0.14137   0.15520   0.15810   0.16279   0.17178
 Alpha virt. eigenvalues --    0.17638   0.19231   0.19782   0.19935   0.20232
 Alpha virt. eigenvalues --    0.20790   0.21329   0.21881   0.23495   0.24997
 Alpha virt. eigenvalues --    0.25103   0.25342   0.26526   0.28077   0.28835
 Alpha virt. eigenvalues --    0.29996   0.30408   0.30743   0.30895   0.31074
 Alpha virt. eigenvalues --    0.31497   0.32079   0.32491   0.33184   0.33475
 Alpha virt. eigenvalues --    0.33563   0.35527   0.36733   0.36779   0.37487
 Alpha virt. eigenvalues --    0.37667   0.39684   0.40378   0.40393   0.41629
 Alpha virt. eigenvalues --    0.42515   0.43317   0.43803   0.44383   0.44700
 Alpha virt. eigenvalues --    0.45802   0.45856   0.47135   0.47539   0.47910
 Alpha virt. eigenvalues --    0.48336   0.49409   0.50095   0.51390   0.51540
 Alpha virt. eigenvalues --    0.51784   0.53012   0.54193   0.54488   0.55332
 Alpha virt. eigenvalues --    0.56654   0.57233   0.57773   0.58335   0.59234
 Alpha virt. eigenvalues --    0.60142   0.60930   0.60946   0.61414   0.62656
 Alpha virt. eigenvalues --    0.63474   0.64310   0.65054   0.65576   0.66187
 Alpha virt. eigenvalues --    0.66675   0.67256   0.68223   0.68692   0.69325
 Alpha virt. eigenvalues --    0.69850   0.70301   0.72107   0.72185   0.73902
 Alpha virt. eigenvalues --    0.74194   0.76382   0.76707   0.76745   0.78281
 Alpha virt. eigenvalues --    0.79626   0.80151   0.80181   0.82388   0.82671
 Alpha virt. eigenvalues --    0.83793   0.84355   0.85124   0.85251   0.86105
 Alpha virt. eigenvalues --    0.86423   0.87428   0.87462   0.87673   0.88622
 Alpha virt. eigenvalues --    0.90375   0.90555   0.91804   0.92282   0.94095
 Alpha virt. eigenvalues --    0.94232   0.94459   0.95272   0.96161   0.96653
 Alpha virt. eigenvalues --    0.97727   0.98330   0.98513   0.98750   1.00835
 Alpha virt. eigenvalues --    1.01406   1.02963   1.06711   1.08189   1.08270
 Alpha virt. eigenvalues --    1.09069   1.10046   1.10421   1.11120   1.12514
 Alpha virt. eigenvalues --    1.13062   1.14854   1.15661   1.16691   1.17384
 Alpha virt. eigenvalues --    1.18361   1.18980   1.19425   1.19960   1.20143
 Alpha virt. eigenvalues --    1.20538   1.21591   1.21795   1.22503   1.22658
 Alpha virt. eigenvalues --    1.23119   1.23126   1.23516   1.24519   1.24763
 Alpha virt. eigenvalues --    1.24944   1.24970   1.26144   1.26742   1.26926
 Alpha virt. eigenvalues --    1.27234   1.27754   1.28017   1.28619   1.30630
 Alpha virt. eigenvalues --    1.30727   1.31529   1.31624   1.33167   1.34324
 Alpha virt. eigenvalues --    1.34513   1.36295   1.36995   1.37749   1.38815
 Alpha virt. eigenvalues --    1.39951   1.40381   1.41669   1.42548   1.43781
 Alpha virt. eigenvalues --    1.45033   1.45699   1.46688   1.47462   1.48049
 Alpha virt. eigenvalues --    1.49798   1.49956   1.50754   1.50764   1.53090
 Alpha virt. eigenvalues --    1.53213   1.54560   1.54775   1.57826   1.58611
 Alpha virt. eigenvalues --    1.62787   1.69426   1.72989   2.03547   2.07659
 Alpha virt. eigenvalues --    2.09111   2.10354   2.10960   2.13192   2.16161
 Alpha virt. eigenvalues --    2.16784   2.18422   2.19487   2.20687   2.21142
 Alpha virt. eigenvalues --    2.22143   2.22732   2.23843   2.23866   2.25788
 Alpha virt. eigenvalues --    2.26972   2.27999   2.29941   2.29970   2.30548
 Alpha virt. eigenvalues --    2.33638   2.35251   2.36477   2.39490   2.39559
 Alpha virt. eigenvalues --    2.39832   2.41192   2.43967   2.47093   2.48668
 Alpha virt. eigenvalues --    2.49810   2.51026   2.51962   2.53169   2.55996
 Alpha virt. eigenvalues --    2.56672   2.58364   2.59410   2.63987   2.64834
 Alpha virt. eigenvalues --    2.67525   2.69332   2.70808   2.73750   2.76393
 Alpha virt. eigenvalues --    2.76641   2.77360   2.79286   2.79363   2.82500
 Alpha virt. eigenvalues --    2.82742   2.85013   2.88195   2.88214   2.96443
 Alpha virt. eigenvalues --    3.17580   3.25514   3.32854   3.35410   3.41482
 Alpha virt. eigenvalues --    3.42011   3.94043   3.99006   4.00507   4.01090
 Alpha virt. eigenvalues --    4.03085   4.03908   4.04516   4.04738   4.11861
 Alpha virt. eigenvalues --    5.23250   5.34651   5.39385  35.38629  35.39520
 Alpha virt. eigenvalues --   35.41621  35.43658  35.46192  35.48025  35.50092
 Alpha virt. eigenvalues --   35.51291  35.53344  35.56644  35.60294  35.60961
 Alpha virt. eigenvalues --   35.89007  35.93249  35.95165  36.08419  36.20418
 Alpha virt. eigenvalues --   36.22017  36.94186  37.01265  37.03023  37.05304
 Alpha virt. eigenvalues --   37.08309  37.14590 113.56944 113.58849 120.22349
 Alpha virt. eigenvalues --  120.23419 120.24291 120.25625
          Condensed to atoms (all electrons):
               1          2          3          4          5          6
     1  Ge  31.566485  -0.012252   0.164929  -0.016239   0.199844  -0.023327
     2  Ge  -0.012252  31.645043  -0.014971   0.188272  -0.012239   0.176286
     3  Bi   0.164929  -0.014971  22.386127   0.129471  -0.014530  -0.023499
     4  Sn  -0.016239   0.188272   0.129471  21.390740  -0.016218   0.069721
     5  Ge   0.199844  -0.012239  -0.014530  -0.016218  31.566583   0.143300
     6  Bi  -0.023327   0.176286  -0.023499   0.069721   0.143300  22.270049
     7  Bi  -0.014574  -0.014996   0.189701   0.129584   0.165051   0.170012
     8  Sn   0.131621   0.108173  -0.018152  -0.020085   0.131513   0.114066
     9  Bi   0.143315   0.176378   0.170063   0.069628  -0.023239  -0.030982
               7          8          9
     1  Ge  -0.014574   0.131621   0.143315
     2  Ge  -0.014996   0.108173   0.176378
     3  Bi   0.189701  -0.018152   0.170063
     4  Sn   0.129584  -0.020085   0.069628
     5  Ge   0.165051   0.131513  -0.023239
     6  Bi   0.170012   0.114066  -0.030982
     7  Bi  22.385644  -0.018181  -0.023571
     8  Sn  -0.018181  21.343436   0.114098
     9  Bi  -0.023571   0.114098  22.269953
 Mulliken charges:
               1
     1  Ge  -0.139801
     2  Ge  -0.239694
     3  Bi   0.030860
     4  Sn   0.075127
     5  Ge  -0.140065
     6  Bi   0.134375
     7  Bi   0.031330
     8  Sn   0.113511
     9  Bi   0.134359
 Sum of Mulliken charges =   0.00000
 Mulliken charges with hydrogens summed into heavy atoms:
               1
     1  Ge  -0.139801
     2  Ge  -0.239694
     3  Bi   0.030860
     4  Sn   0.075127
     5  Ge  -0.140065
     6  Bi   0.134375
     7  Bi   0.031330
     8  Sn   0.113511
     9  Bi   0.134359
 Electronic spatial extent (au):  <R**2>=           6062.7913
 Charge=              0.0000 electrons
 Dipole moment (field-independent basis, Debye):
    X=             -0.0078    Y=             -0.9925    Z=             -1.2656  Tot=              1.6084
 Quadrupole moment (field-independent basis, Debye-Ang):
   XX=           -215.2527   YY=           -214.8172   ZZ=           -224.6049
   XY=              0.0147   XZ=              0.0030   YZ=             -0.0300
 Traceless Quadrupole moment (field-independent basis, Debye-Ang):
   XX=              2.9722   YY=              3.4077   ZZ=             -6.3800
   XY=              0.0147   XZ=              0.0030   YZ=             -0.0300
 Octapole moment (field-independent basis, Debye-Ang**2):
  XXX=             -0.6360  YYY=            -95.9470  ZZZ=            -38.7756  XYY=             -0.3837
  XXY=            -24.4062  XXZ=            -20.9730  XZZ=             -0.2420  YZZ=            -31.3203
  YYZ=              0.9182  XYZ=              0.1763
 Hexadecapole moment (field-independent basis, Debye-Ang**3):
 XXXX=          -3241.4182 YYYY=          -3429.7482 ZZZZ=          -2895.9613 XXXY=             -0.6114
 XXXZ=             -0.9559 YYYX=             -1.6114 YYYZ=            -41.6221 ZZZX=             -0.3224
 ZZZY=            -34.5619 XXYY=          -1089.0069 XXZZ=          -1059.3254 YYZZ=          -1072.1386
 XXYZ=            -34.0226 YYXZ=              0.1278 ZZXY=             -0.2555
 N-N= 3.522557933050D+03 E-N=-2.463670277235D+04  KE= 6.661981219652D+03
 No NMR shielding tensors so no spin-rotation constants.
 Leave Link  601 at Tue Mar  6 15:17:57 2018, MaxMem=   536870912 cpu:         1.6
 (Enter /share/apps//mg09/l701.exe)
 Compute integral first derivatives.
 ... and contract with generalized density number  0.
   1 Symmetry operations used in ECPInt.
 ECPInt:  NShTT=   10440 NPrTT=   41973 LenC2=    9661 LenP2D=   27444.
 LDataN:  DoStor=T MaxTD1= 9 Len=  602
 Leave Link  701 at Tue Mar  6 15:18:22 2018, MaxMem=   536870912 cpu:        88.8
 (Enter /share/apps//mg09/l702.exe)
 L702 exits ... SP integral derivatives will be done elsewhere.
 Leave Link  702 at Tue Mar  6 15:18:22 2018, MaxMem=   536870912 cpu:         0.1
 (Enter /share/apps//mg09/l703.exe)
 Compute integral first derivatives, UseDBF=F ICtDFT=           0.
 Integral derivatives from FoFJK, PRISM(SPDF).
 Calling FoFJK, ICntrl=      2127 FMM=F ISym2X=0 I1Cent= 0 IOpClX= 0 NMat=1 NMatS=1 NMatT=0.
 FoFJK:  IHMeth= 1 ICntrl=    2127 DoSepK=F KAlg= 0 I1Cent=   0 FoldK=F
 IRaf=         0 NMat=   1 IRICut=       1 DoRegI=T DoRafI=F ISym2E= 0.
 FoFCou: FMM=F IPFlag=           0 FMFlag=      100000 FMFlg1=         800
         NFxFlg=           0 DoJE=F BraDBF=F KetDBF=F FulRan=T
         wScrn=  0.000000 ICntrl=    2127 IOpCl=  0 I1Cent=           0 NGrid=           0
         NMat0=    1 NMatS0=      1 NMatT0=    0 NMatD0=    1 NMtDS0=    0 NMtDT0=    0
 Symmetry not used in FoFCou.
 Defaulting to unpruned grid for atomic number  83.
 Defaulting to unpruned grid for atomic number  83.
 Defaulting to unpruned grid for atomic number  83.
 Defaulting to unpruned grid for atomic number  83.
 Leave Link  703 at Tue Mar  6 15:21:55 2018, MaxMem=   536870912 cpu:       794.0
 (Enter /share/apps//mg09/l716.exe)
 Dipole        =-3.07704667D-03-3.90472831D-01-4.97932484D-01
 ***** Axes restored to original set *****
 -------------------------------------------------------------------
 Center     Atomic                   Forces (Hartrees/Bohr)
 Number     Number              X              Y              Z
 -------------------------------------------------------------------
      1       32          -0.009549050    0.002356355    0.010681304
      2       32           0.000062391   -0.009515031   -0.009783615
      3       83          -0.004239103    0.007052083   -0.000781123
      4       50          -0.000023615    0.006915412   -0.009360828
      5       32           0.009587476    0.002544693    0.010722659
      6       83           0.010045213   -0.001127662   -0.002389387
      7       83           0.004040129    0.006966022   -0.000844613
      8       50           0.000126239   -0.013910006    0.004197618
      9       83          -0.010049679   -0.001281866   -0.002442015
 -------------------------------------------------------------------
 Cartesian Forces:  Max     0.013910006 RMS     0.006958588
 Force constants in Cartesian coordinates: 
                1             2             3             4             5 
      1  0.135424D+00
      2 -0.113476D-01  0.121501D+00
      3 -0.182045D-01  0.193248D-03  0.182734D+00
      4  0.592297D-02 -0.241545D-02  0.238265D-02  0.139630D+00
      5  0.133623D-02  0.311319D-02 -0.728782D-02 -0.121386D-03  0.156306D+00
      6  0.636321D-02 -0.176387D-02 -0.232674D-02 -0.301358D-03  0.399672D-01
      7 -0.239206D-01  0.361513D-03  0.106168D-01  0.496324D-02  0.641208D-02
      8  0.122166D-01 -0.448774D-01  0.622854D-02  0.283652D-02 -0.183635D-02
      9 -0.318304D-02  0.392407D-01 -0.465118D-01 -0.233073D-02 -0.289710D-02
     10  0.352730D-02  0.823386D-03 -0.194861D-02 -0.188389D-01  0.304901D-03
     11 -0.150277D-02  0.572141D-02  0.308435D-02  0.312972D-03 -0.601392D-01
     12  0.666608D-02  0.130455D-02 -0.490485D-02  0.130719D-03 -0.180284D-01
     13 -0.581808D-01 -0.646721D-02 -0.188374D-01  0.590247D-02 -0.129873D-02
     14  0.588717D-02 -0.200219D-01 -0.866861D-04  0.245652D-02  0.313116D-02
     15  0.188376D-01  0.202692D-03 -0.335885D-01 -0.227861D-02 -0.731950D-02
     16 -0.195094D-02  0.480863D-03  0.983981D-02 -0.640047D-01  0.304356D-03
     17  0.443931D-02  0.487036D-02 -0.267552D-02 -0.284506D-01 -0.334560D-01
     18  0.184387D-02  0.197877D-02  0.145227D-02 -0.334214D-01 -0.141161D-01
     19  0.376208D-04 -0.627304D-02  0.603641D-02  0.510057D-02 -0.630846D-02
     20 -0.561415D-02  0.965874D-04  0.126861D-03 -0.273071D-02 -0.197930D-02
     21  0.574629D-02  0.371367D-03  0.154463D-03  0.237459D-02 -0.285992D-02
     22 -0.233518D-01  0.251968D-01  0.337157D-02 -0.142508D-01  0.143606D-03
     23  0.356065D-02 -0.482257D-01  0.117897D-01  0.126896D-03 -0.320862D-01
     24  0.129277D-01 -0.213457D-01 -0.323627D-01 -0.207779D-03  0.261560D-01
     25 -0.375080D-01 -0.359260D-03  0.674319D-02 -0.644249D-01 -0.772604D-03
     26 -0.897548D-02 -0.221774D-01 -0.113727D-01  0.279852D-01 -0.330534D-01
     27 -0.309973D-01 -0.201818D-01 -0.646461D-01  0.336519D-01 -0.136145D-01
                6             7             8             9            10 
      6  0.161655D+00
      7  0.104272D-02  0.131509D+00
      8 -0.697346D-02 -0.243314D-01  0.162599D+00
      9  0.327658D-02 -0.108264D-01 -0.561277D-02  0.111520D+00
     10 -0.204752D-03 -0.216173D-01  0.389347D-02  0.245575D-01  0.106452D+00
     11  0.268784D-01  0.129510D-01 -0.286353D-01 -0.204249D-01 -0.283612D-03
     12 -0.365488D-01  0.319698D-02  0.107983D-01 -0.449230D-01  0.222884D-03
     13 -0.634147D-02 -0.144402D-03  0.560917D-02 -0.575472D-02  0.351473D-02
     14 -0.186002D-02  0.627091D-02  0.285312D-03  0.275932D-03 -0.856585D-03
     15 -0.231798D-02 -0.603314D-02  0.203312D-04  0.170464D-03  0.189358D-02
     16 -0.175180D-02 -0.192717D-02  0.912906D-02 -0.236785D-03 -0.299195D-01
     17 -0.163997D-01  0.166265D-02  0.905352D-03  0.164558D-02  0.175766D-01
     18 -0.388078D-01  0.363189D-02 -0.256034D-02  0.398205D-02 -0.176209D-01
     19 -0.939829D-03 -0.596183D-01 -0.172974D-01 -0.473097D-02 -0.214138D-01
     20 -0.699363D-02  0.168365D-01 -0.279586D-01  0.917286D-03 -0.378321D-02
     21  0.327597D-02  0.473998D-02  0.997650D-03 -0.152497D-01 -0.242779D-01
     22  0.112939D-03  0.337011D-02 -0.126476D-02  0.931512D-03  0.789387D-02
     23 -0.164660D-01  0.741803D-02 -0.447535D-02  0.119402D-02  0.750244D-04
     24 -0.493713D-01 -0.176868D-02  0.363334D-02  0.620042D-02 -0.301893D-04
     25  0.202035D-02 -0.326147D-01  0.920878D-02  0.157357D-02 -0.295980D-01
     26 -0.163889D-01 -0.275813D-01 -0.560062D-01 -0.143388D-01 -0.177499D-01
     27 -0.388353D-01 -0.460021D-02 -0.653162D-02 -0.184655D-01  0.174084D-01
               11            12            13            14            15 
     11  0.143926D+00
     12 -0.233285D-01  0.194171D+00
     13  0.147006D-02 -0.668799D-02  0.135068D+00
     14  0.574472D-02  0.120244D-02  0.115071D-01  0.121808D+00
     15  0.311438D-02 -0.489810D-02  0.182853D-01  0.444244D-03  0.182749D+00
     16  0.314291D-02  0.118375D-01 -0.376287D-01  0.111592D-03 -0.660252D-02
     17 -0.178904D-01  0.309989D-02  0.874435D-02 -0.220458D-01 -0.114878D-01
     18  0.137036D-01 -0.279840D-01  0.312904D-01 -0.197271D-01 -0.646988D-01
     19 -0.128519D-01 -0.340294D-02 -0.237440D-01  0.207046D-04 -0.107461D-01
     20 -0.289453D-01  0.107302D-01 -0.118704D-01 -0.450860D-01  0.609367D-02
     21 -0.208219D-01 -0.450130D-01  0.253543D-02  0.393149D-01 -0.465585D-01
     22  0.731264D-04 -0.869324D-04 -0.229102D-01 -0.248165D-01 -0.356246D-02
     23 -0.157604D-02  0.112920D-01 -0.315363D-02 -0.486100D-01  0.117516D-01
     24  0.383150D-02 -0.191746D-02 -0.126181D-01 -0.215148D-01 -0.323206D-01
     25 -0.331177D-02 -0.118763D-01 -0.187659D-02 -0.580936D-03 -0.979373D-02
     26 -0.182059D-01  0.292940D-02 -0.454073D-02  0.479424D-02 -0.281959D-02
     27  0.139630D-01 -0.279821D-01 -0.187143D-02  0.195116D-02  0.146336D-02
               16            17            18            19            20 
     16  0.219729D+00
     17 -0.109932D-01  0.152623D+00
     18 -0.140269D-01  0.237984D-01  0.162405D+00
     19 -0.329224D-01  0.279424D-01  0.470368D-02  0.130866D+00
     20 -0.883108D-02 -0.557640D-01 -0.646399D-02  0.237706D-01  0.163475D+00
     21 -0.133945D-02 -0.143790D-01 -0.184778D-01  0.109565D-01 -0.545770D-02
     22 -0.404958D-01 -0.238457D-01  0.206253D-01  0.346562D-02  0.139316D-02
     23  0.983148D-02 -0.349760D-01  0.407887D-02 -0.730013D-02 -0.457388D-02
     24  0.523592D-02  0.171361D-01 -0.248375D-01  0.171671D-02  0.366050D-02
     25 -0.108796D-01  0.292429D-02  0.297409D-02 -0.177129D-02 -0.917068D-02
     26 -0.317593D-02  0.573362D-02 -0.692141D-03 -0.170267D-02  0.735143D-03
     27 -0.295571D-02 -0.738008D-03  0.696666D-02 -0.359353D-02 -0.261324D-02
               21            22            23            24            25 
     21  0.111695D+00
     22 -0.947866D-03  0.126965D+00
     23  0.118572D-02 -0.630276D-03  0.209269D+00
     24  0.619123D-02  0.219835D-03 -0.285873D-01  0.153213D+00
     25  0.212419D-03 -0.406857D-01 -0.992805D-02 -0.547541D-02  0.219359D+00
     26  0.164888D-02  0.237505D-01 -0.347460D-01  0.170303D-01  0.119902D-01
     27  0.398254D-02 -0.206639D-01  0.376140D-02 -0.247948D-01  0.136218D-01
               26            27 
     26  0.152926D+00
     27  0.240035D-01  0.162311D+00
 Leave Link  716 at Tue Mar  6 15:21:56 2018, MaxMem=   536870912 cpu:         0.1
 (Enter /share/apps//mg09/l103.exe)

 GradGradGradGradGradGradGradGradGradGradGradGradGradGradGradGradGradGrad
 Berny optimization.
 Search for a local minimum.
 Step number   1 out of a maximum of  100
 All quantities printed in internal units (Hartrees-Bohrs-Radians)
 Second derivative matrix not updated -- first step.
 ITU=  0
     Eigenvalues ---    0.08513   0.11993   0.12077   0.12442   0.13365
     Eigenvalues ---    0.14746   0.14766   0.15228   0.15557   0.15844
     Eigenvalues ---    0.16877   0.21664   0.22978   0.23904   0.24074
     Eigenvalues ---    0.24637   0.27197   0.27409   0.28730   0.30681
     Eigenvalues ---    0.31094
 RFO step:  Lambda=-7.98868703D-03 EMin= 8.51262184D-02
 Linear search not attempted -- first point.
 TrRot=  0.000009 -0.000581  0.001340  0.007989 -0.000001 -0.007990
 Variable       Old X    -DE/DX   Delta X   Delta X   Delta X     New X
                                 (Linear)    (Quad)   (Total)
    X1        2.61698  -0.00955   0.00000  -0.06197  -0.06196   2.55502
    Y1        0.30241   0.00236   0.00000   0.00913   0.00854   0.31095
    Z1       -4.32107   0.01068   0.00000   0.06243   0.06377  -4.25730
    X2       -0.02901   0.00006   0.00000   0.00036   0.00037  -0.02864
    Y2        3.93102  -0.00952   0.00000  -0.05262  -0.05320   3.87782
    Z2        3.49451  -0.00978   0.00000  -0.06192  -0.06058   3.43393
    X3        2.86841  -0.00424   0.00000  -0.03661  -0.03660   2.83181
    Y3       -3.63614   0.00705   0.00000   0.04996   0.04937  -3.58676
    Z3       -0.41931  -0.00078   0.00000  -0.00412  -0.00277  -0.42208
    X4        0.01161  -0.00002   0.00000  -0.00017  -0.00017   0.01144
    Y4       -1.48686   0.00692   0.00000   0.04117   0.04058  -1.44628
    Z4        4.32353  -0.00936   0.00000  -0.06298  -0.06164   4.26190
    X5       -2.62675   0.00959   0.00000   0.06218   0.06220  -2.56456
    Y5        0.26233   0.00254   0.00000   0.01033   0.00975   0.27208
    Z5       -4.32058   0.01072   0.00000   0.06254   0.06387  -4.25671
    X6       -4.22023   0.01005   0.00000   0.05783   0.05784  -4.16240
    Y6        1.77387  -0.00113   0.00000  -0.01383  -0.01441   1.75946
    Z6        0.77575  -0.00239   0.00000  -0.01627  -0.01493   0.76081
    X7       -2.81049   0.00404   0.00000   0.03532   0.03532  -2.77516
    Y7       -3.67718   0.00697   0.00000   0.04982   0.04924  -3.62794
    Z7       -0.41736  -0.00084   0.00000  -0.00451  -0.00318  -0.42054
    X8       -0.03744   0.00013   0.00000   0.00070   0.00071  -0.03672
    Y8        4.75510  -0.01391   0.00000  -0.07423  -0.07481   4.68029
    Z8       -2.21364   0.00420   0.00000   0.02942   0.03076  -2.18288
    X9        4.19282  -0.01005   0.00000  -0.05772  -0.05771   4.13511
    Y9        1.83733  -0.00128   0.00000  -0.01449  -0.01508   1.82225
    Z9        0.77435  -0.00244   0.00000  -0.01665  -0.01530   0.75905
         Item               Value     Threshold  Converged?
 Maximum Force            0.013910     0.000450     NO 
 RMS     Force            0.006959     0.000300     NO 
 Maximum Displacement     0.074807     0.001800     NO 
 RMS     Displacement     0.042837     0.001200     NO 
 Predicted change in Energy=-4.192321D-03
 Lowest energy point so far.  Saving SCF results.
 GradGradGradGradGradGradGradGradGradGradGradGradGradGradGradGradGradGrad

 Leave Link  103 at Tue Mar  6 15:21:56 2018, MaxMem=   536870912 cpu:         0.2
 (Enter /share/apps//mg09/l202.exe)
                          Input orientation:                          
 ---------------------------------------------------------------------
 Center     Atomic      Atomic             Coordinates (Angstroms)
 Number     Number       Type             X           Y           Z
 ---------------------------------------------------------------------
      1         32           0        1.352057    0.164550   -2.252866
      2         32           0       -0.015154    2.052054    1.817160
      3         83           0        1.498532   -1.898034   -0.223357
      4         50           0        0.006055   -0.765339    2.255298
      5         32           0       -1.357105    0.143980   -2.252555
      6         83           0       -2.202647    0.931068    0.402605
      7         83           0       -1.468553   -1.919824   -0.222541
      8         50           0       -0.019434    2.476703   -1.155130
      9         83           0        2.188206    0.964294    0.401670
 ---------------------------------------------------------------------
                    Distance matrix (angstroms):
                    1          2          3          4          5
     1  Ge   0.000000
     2  Ge   4.690101   0.000000
     3  Bi   2.897346   4.696610   0.000000
     4  Sn   4.795827   2.851336   3.107124   0.000000
     5  Ge   2.709241   4.690858   4.054889   4.796437   0.000000
     6  Bi   4.502776   2.835965   4.700465   3.344941   2.895569
     7  Bi   4.052490   4.695589   2.967165   3.105961   2.897010
     8  Sn   2.903802   3.002474   4.723425   4.705582   2.904359
     9  Bi   2.895737   2.835777   3.009856   3.345049   4.504115
                    6          7          8          9
     6  Bi   0.000000
     7  Bi   3.009532   0.000000
     8  Sn   3.095472   4.722194   0.000000
     9  Bi   4.390978   4.698900   3.095913   0.000000
 Stoichiometry    Bi4Ge3Sn2
 Framework group  C1[X(Bi4Ge3Sn2)]
 Deg. of freedom    21
 Full point group                 C1      NOp   1
 RotChk:  IX=3 Diff= 5.71D-03
 Largest Abelian subgroup         C1      NOp   1
 Largest concise Abelian subgroup C1      NOp   1
                         Standard orientation:                         
 ---------------------------------------------------------------------
 Center     Atomic      Atomic             Coordinates (Angstroms)
 Number     Number       Type             X           Y           Z
 ---------------------------------------------------------------------
      1         32           0       -1.352488    0.151167    2.250957
      2         32           0        0.012136    2.055960   -1.811876
      3         83           0       -1.495733   -1.904017    0.213726
      4         50           0       -0.004807   -0.759800   -2.260568
      5         32           0        1.356703    0.134675    2.250753
      6         83           0        2.201224    0.932975   -0.401382
      7         83           0        1.471382   -1.921340    0.213029
      8         50           0        0.015591    2.469477    1.161984
      9         83           0       -2.189674    0.959592   -0.400620
 ---------------------------------------------------------------------
 Rotational constants (GHZ):      0.1043122      0.1001701      0.0813629
 Leave Link  202 at Tue Mar  6 15:21:57 2018, MaxMem=   536870912 cpu:         0.0
 (Enter /share/apps//mg09/l301.exe)
 Standard basis: def2TZVP (5D, 7F)
 Ernie: Thresh=  0.10000D-02 Tol=  0.10000D-05 Strict=F.
 There are   519 symmetry adapted cartesian basis functions of A   symmetry.
 There are   444 symmetry adapted basis functions of A   symmetry.
   444 basis functions,   963 primitive gaussians,   519 cartesian basis functions
   116 alpha electrons      116 beta electrons
       nuclear repulsion energy      3577.8016977269 Hartrees.
 IExCor= 1009 DFT=T Ex+Corr=PBE1PBE ExCW=0 ScaHFX=  0.250000
 ScaDFX=  0.750000  0.750000  1.000000  1.000000 ScalE2=  1.000000  1.000000
 IRadAn=      0 IRanWt=     -1 IRanGd=            0 ICorTp=0 IEmpDi=  4
 NAtoms=    9 NActive=    9 NUniq=    9 SFac= 1.00D+00 NAtFMM=   60 NAOKFM=F Big=F
 Integral buffers will be    131072 words long.
 Raffenetti 2 integral format.
 Two-electron integral symmetry is turned on.
 Leave Link  301 at Tue Mar  6 15:21:57 2018, MaxMem=   536870912 cpu:         0.2
 (Enter /share/apps//mg09/l302.exe)
 NPDir=0 NMtPBC=     1 NCelOv=     1 NCel=       1 NClECP=     1 NCelD=      1
         NCelK=      1 NCelE2=     1 NClLst=     1 CellRange=     0.0.
 One-electron integrals computed using PRISM.
   1 Symmetry operations used in ECPInt.
 ECPInt:  NShTT=   10440 NPrTT=   41973 LenC2=    9694 LenP2D=   27663.
 LDataN:  DoStor=T MaxTD1= 8 Len=  415
 NBasis=   444 RedAO= T EigKep=  1.38D-03  NBF=   444
 NBsUse=   444 1.00D-06 EigRej= -1.00D+00 NBFU=   444
 Precomputing XC quadrature grid using
 IXCGrd= 4 IRadAn=           0 IRanWt=          -1 IRanGd=           0 AccXCQ= 0.00D+00.
 Defaulting to unpruned grid for atomic number  50.
 Defaulting to unpruned grid for atomic number  83.
 Defaulting to unpruned grid for atomic number  83.
 Generated NRdTot=       0 NPtTot=           0 NUsed=           0 NTot=          32
 NSgBfM=   505   505   505   505   505 MxSgAt=     9 MxSgA2=     9.
 Leave Link  302 at Tue Mar  6 15:22:05 2018, MaxMem=   536870912 cpu:        31.6
 (Enter /share/apps//mg09/l303.exe)
 DipDrv:  MaxL=1.
 Leave Link  303 at Tue Mar  6 15:22:06 2018, MaxMem=   536870912 cpu:         0.4
 (Enter /share/apps//mg09/l401.exe)
 Initial guess from the checkpoint file:  "Isomer_41.chk"
 B after Tr=     0.000000    0.000000    0.000000
         Rot=    0.999998   -0.001911    0.000030   -0.000751 Ang=  -0.24 deg.
 Guess basis will be translated and rotated to current coordinates.
 JPrj=2 DoOrth=T DoCkMO=T.
 Generating alternative initial guess.
 ExpMin= 4.62D-02 ExpMax= 4.66D+05 ExpMxC= 4.50D+03 IAcc=2 IRadAn=         4 AccDes= 0.00D+00
 Harris functional with IExCor= 1009 and IRadAn=       4 diagonalized for initial guess.
 HarFok:  IExCor= 1009 AccDes= 0.00D+00 IRadAn=         4 IDoV= 1 UseB2=F ITyADJ=14
 ICtDFT=  3500011 ScaDFX=  1.000000  1.000000  1.000000  1.000000
 Defaulting to unpruned grid for atomic number  83.
 Defaulting to unpruned grid for atomic number  83.
 Defaulting to unpruned grid for atomic number  83.
 Defaulting to unpruned grid for atomic number  83.
 FoFCou: FMM=F IPFlag=           0 FMFlag=      100000 FMFlg1=           0
         NFxFlg=           0 DoJE=T BraDBF=F KetDBF=T FulRan=T
         wScrn=  0.000000 ICntrl=     500 IOpCl=  0 I1Cent=   200000004 NGrid=           0
         NMat0=    1 NMatS0=      1 NMatT0=    0 NMatD0=    1 NMtDS0=    0 NMtDT0=    0
 Petite list used in FoFCou.
 Harris En= -7518.61504838745    
 Leave Link  401 at Tue Mar  6 15:22:10 2018, MaxMem=   536870912 cpu:        14.6
 (Enter /share/apps//mg09/l502.exe)
 Closed shell SCF:
 Using DIIS extrapolation, IDIIS=  1040.
 Integral symmetry usage will be decided dynamically.
 IVT=     1410107 IEndB=     1410107 NGot=   536870912 MDV=   536322046
 LenX=   536322046 LenY=   536052166
 Requested convergence on RMS density matrix=1.00D-08 within 768 cycles.
 Requested convergence on MAX density matrix=1.00D-06.
 Requested convergence on             energy=1.00D-06.
 No special actions if energy rises.
 Fock matrices will be formed incrementally for  20 cycles.

 Cycle   1  Pass 1  IDiag  1:
 FoFJK:  IHMeth= 1 ICntrl=       0 DoSepK=F KAlg= 0 I1Cent=   0 FoldK=F
 IRaf= 880000000 NMat=   1 IRICut=       1 DoRegI=T DoRafI=F ISym2E= 0.
 FoFCou: FMM=F IPFlag=           0 FMFlag=      100000 FMFlg1=           0
         NFxFlg=           0 DoJE=F BraDBF=F KetDBF=F FulRan=T
         wScrn=  0.000000 ICntrl=       0 IOpCl=  0 I1Cent=           0 NGrid=           0
         NMat0=    1 NMatS0=      1 NMatT0=    0 NMatD0=    1 NMtDS0=    0 NMtDT0=    0
 Symmetry not used in FoFCou.
 Defaulting to unpruned grid for atomic number  83.
 Defaulting to unpruned grid for atomic number  83.
 Defaulting to unpruned grid for atomic number  83.
 Defaulting to unpruned grid for atomic number  83.
 E= -7517.81451196769    
 DIIS: error= 6.09D-03 at cycle   1 NSaved=   1.
 NSaved= 1 IEnMin= 1 EnMin= -7517.81451196769     IErMin= 1 ErrMin= 6.09D-03
 ErrMax= 6.09D-03  0.00D+00 EMaxC= 1.00D-01 BMatC= 8.38D-03 BMatP= 8.38D-03
 IDIUse=3 WtCom= 9.39D-01 WtEn= 6.09D-02
 Coeff-Com:  0.100D+01
 Coeff-En:   0.100D+01
 Coeff:      0.100D+01
 Gap=     8.126 Goal=   None    Shift=    0.000
 GapD=    8.126 DampG=2.000 DampE=1.000 DampFc=2.0000 IDamp=-1.
 RMSDP=1.75D-04 MaxDP=3.89D-03              OVMax= 2.08D-02

 Cycle   2  Pass 1  IDiag  1:
 RMSU=  1.75D-04    CP:  1.00D+00
 E= -7517.81458509980     Delta-E=       -0.000073132109 Rises=F Damp=F
 DIIS: error= 1.70D-03 at cycle   2 NSaved=   2.
 NSaved= 2 IEnMin= 2 EnMin= -7517.81458509980     IErMin= 2 ErrMin= 1.70D-03
 ErrMax= 1.70D-03  0.00D+00 EMaxC= 1.00D-01 BMatC= 1.52D-03 BMatP= 8.38D-03
 IDIUse=3 WtCom= 9.83D-01 WtEn= 1.70D-02
 Coeff-Com:  0.192D+00 0.808D+00
 Coeff-En:   0.478D+00 0.522D+00
 Coeff:      0.197D+00 0.803D+00
 Gap=     0.119 Goal=   None    Shift=    0.000
 RMSDP=2.02D-04 MaxDP=9.66D-03 DE=-7.31D-05 OVMax= 1.53D-02

 Cycle   3  Pass 1  IDiag  1:
 RMSU=  1.83D-04    CP:  9.99D-01  5.36D-01
 E= -7517.81289101539     Delta-E=        0.001694084413 Rises=F Damp=F
 DIIS: error= 2.43D-03 at cycle   3 NSaved=   3.
 NSaved= 3 IEnMin= 2 EnMin= -7517.81458509980     IErMin= 2 ErrMin= 1.70D-03
 ErrMax= 2.43D-03  0.00D+00 EMaxC= 1.00D-01 BMatC= 3.52D-03 BMatP= 1.52D-03
 IDIUse=3 WtCom= 1.69D-01 WtEn= 8.31D-01
 Coeff-Com:  0.546D-02 0.602D+00 0.392D+00
 Coeff-En:   0.000D+00 0.661D+00 0.339D+00
 Coeff:      0.921D-03 0.651D+00 0.348D+00
 Gap=     0.121 Goal=   None    Shift=    0.000
 RMSDP=1.12D-04 MaxDP=6.05D-03 DE= 1.69D-03 OVMax= 1.11D-02

 Cycle   4  Pass 1  IDiag  1:
 RMSU=  3.92D-05    CP:  9.99D-01  8.01D-01  4.94D-01
 E= -7517.81562416104     Delta-E=       -0.002733145655 Rises=F Damp=F
 DIIS: error= 5.22D-04 at cycle   4 NSaved=   4.
 NSaved= 4 IEnMin= 4 EnMin= -7517.81562416104     IErMin= 4 ErrMin= 5.22D-04
 ErrMax= 5.22D-04  0.00D+00 EMaxC= 1.00D-01 BMatC= 1.74D-04 BMatP= 1.52D-03
 IDIUse=3 WtCom= 9.95D-01 WtEn= 5.22D-03
 Coeff-Com: -0.578D-04 0.430D+00 0.235D+00 0.335D+00
 Coeff-En:   0.000D+00 0.698D-01 0.000D+00 0.930D+00
 Coeff:     -0.575D-04 0.428D+00 0.233D+00 0.338D+00
 Gap=     0.120 Goal=   None    Shift=    0.000
 RMSDP=3.57D-05 MaxDP=1.95D-03 DE=-2.73D-03 OVMax= 3.80D-03

 Cycle   5  Pass 1  IDiag  1:
 RMSU=  1.40D-05    CP:  9.99D-01  8.55D-01  4.49D-01  2.29D-01
 E= -7517.81576351367     Delta-E=       -0.000139352631 Rises=F Damp=F
 DIIS: error= 1.76D-04 at cycle   5 NSaved=   5.
 NSaved= 5 IEnMin= 5 EnMin= -7517.81576351367     IErMin= 5 ErrMin= 1.76D-04
 ErrMax= 1.76D-04  0.00D+00 EMaxC= 1.00D-01 BMatC= 1.53D-05 BMatP= 1.74D-04
 IDIUse=3 WtCom= 9.98D-01 WtEn= 1.76D-03
 Coeff-Com: -0.907D-03 0.216D+00 0.105D+00 0.260D+00 0.420D+00
 Coeff-En:   0.000D+00 0.000D+00 0.000D+00 0.114D+00 0.886D+00
 Coeff:     -0.906D-03 0.216D+00 0.105D+00 0.259D+00 0.421D+00
 Gap=     0.121 Goal=   None    Shift=    0.000
 RMSDP=1.08D-05 MaxDP=7.73D-04 DE=-1.39D-04 OVMax= 1.50D-03

 Cycle   6  Pass 1  IDiag  1:
 RMSU=  4.39D-06    CP:  9.99D-01  8.64D-01  4.42D-01  4.09D-01  5.55D-01
 E= -7517.81578013805     Delta-E=       -0.000016624374 Rises=F Damp=F
 DIIS: error= 3.41D-05 at cycle   6 NSaved=   6.
 NSaved= 6 IEnMin= 6 EnMin= -7517.81578013805     IErMin= 6 ErrMin= 3.41D-05
 ErrMax= 3.41D-05  0.00D+00 EMaxC= 1.00D-01 BMatC= 7.54D-07 BMatP= 1.53D-05
 IDIUse=1 WtCom= 1.00D+00 WtEn= 0.00D+00
 Coeff-Com: -0.562D-03 0.111D+00 0.536D-01 0.142D+00 0.268D+00 0.426D+00
 Coeff:     -0.562D-03 0.111D+00 0.536D-01 0.142D+00 0.268D+00 0.426D+00
 Gap=     0.121 Goal=   None    Shift=    0.000
 RMSDP=3.89D-06 MaxDP=1.11D-04 DE=-1.66D-05 OVMax= 4.90D-04

 Cycle   7  Pass 1  IDiag  1:
 RMSU=  2.93D-06    CP:  9.99D-01  8.66D-01  4.43D-01  4.15D-01  6.28D-01
                    CP:  4.83D-01
 E= -7517.81578041190     Delta-E=       -0.000000273849 Rises=F Damp=F
 DIIS: error= 2.79D-05 at cycle   7 NSaved=   7.
 NSaved= 7 IEnMin= 7 EnMin= -7517.81578041190     IErMin= 7 ErrMin= 2.79D-05
 ErrMax= 2.79D-05  0.00D+00 EMaxC= 1.00D-01 BMatC= 5.50D-07 BMatP= 7.54D-07
 IDIUse=1 WtCom= 1.00D+00 WtEn= 0.00D+00
 Coeff-Com: -0.143D-03 0.893D-02 0.512D-02 0.217D-01 0.781D-01 0.443D+00
 Coeff-Com:  0.443D+00
 Coeff:     -0.143D-03 0.893D-02 0.512D-02 0.217D-01 0.781D-01 0.443D+00
 Coeff:      0.443D+00
 Gap=     0.121 Goal=   None    Shift=    0.000
 RMSDP=2.14D-06 MaxDP=8.81D-05 DE=-2.74D-07 OVMax= 2.97D-04

 Cycle   8  Pass 1  IDiag  1:
 RMSU=  8.33D-07    CP:  9.99D-01  8.68D-01  4.45D-01  4.11D-01  6.45D-01
                    CP:  7.99D-01  5.80D-01
 E= -7517.81578110189     Delta-E=       -0.000000689990 Rises=F Damp=F
 DIIS: error= 5.87D-06 at cycle   8 NSaved=   8.
 NSaved= 8 IEnMin= 8 EnMin= -7517.81578110189     IErMin= 8 ErrMin= 5.87D-06
 ErrMax= 5.87D-06  0.00D+00 EMaxC= 1.00D-01 BMatC= 3.65D-08 BMatP= 5.50D-07
 IDIUse=1 WtCom= 1.00D+00 WtEn= 0.00D+00
 Coeff-Com:  0.101D-05-0.131D-01-0.532D-02-0.915D-02 0.630D-02 0.220D+00
 Coeff-Com:  0.280D+00 0.520D+00
 Coeff:      0.101D-05-0.131D-01-0.532D-02-0.915D-02 0.630D-02 0.220D+00
 Coeff:      0.280D+00 0.520D+00
 Gap=     0.121 Goal=   None    Shift=    0.000
 RMSDP=5.71D-07 MaxDP=2.13D-05 DE=-6.90D-07 OVMax= 6.52D-05

 Cycle   9  Pass 1  IDiag  1:
 RMSU=  2.62D-07    CP:  9.99D-01  8.68D-01  4.47D-01  4.13D-01  6.52D-01
                    CP:  8.35D-01  6.50D-01  5.74D-01
 E= -7517.81578113456     Delta-E=       -0.000000032676 Rises=F Damp=F
 DIIS: error= 1.60D-06 at cycle   9 NSaved=   9.
 NSaved= 9 IEnMin= 9 EnMin= -7517.81578113456     IErMin= 9 ErrMin= 1.60D-06
 ErrMax= 1.60D-06  0.00D+00 EMaxC= 1.00D-01 BMatC= 3.73D-09 BMatP= 3.65D-08
 IDIUse=1 WtCom= 1.00D+00 WtEn= 0.00D+00
 Coeff-Com:  0.205D-04-0.959D-02-0.393D-02-0.888D-02-0.750D-02 0.802D-01
 Coeff-Com:  0.122D+00 0.309D+00 0.518D+00
 Coeff:      0.205D-04-0.959D-02-0.393D-02-0.888D-02-0.750D-02 0.802D-01
 Coeff:      0.122D+00 0.309D+00 0.518D+00
 Gap=     0.121 Goal=   None    Shift=    0.000
 RMSDP=1.75D-07 MaxDP=1.18D-05 DE=-3.27D-08 OVMax= 2.38D-05

 Cycle  10  Pass 1  IDiag  1:
 RMSU=  9.01D-08    CP:  9.99D-01  8.68D-01  4.47D-01  4.15D-01  6.57D-01
                    CP:  8.36D-01  6.53D-01  6.68D-01  7.79D-01
 E= -7517.81578113786     Delta-E=       -0.000000003296 Rises=F Damp=F
 DIIS: error= 3.07D-07 at cycle  10 NSaved=  10.
 NSaved=10 IEnMin=10 EnMin= -7517.81578113786     IErMin=10 ErrMin= 3.07D-07
 ErrMax= 3.07D-07  0.00D+00 EMaxC= 1.00D-01 BMatC= 8.31D-11 BMatP= 3.73D-09
 IDIUse=1 WtCom= 1.00D+00 WtEn= 0.00D+00
 Coeff-Com:  0.275D-05-0.514D-03-0.130D-03-0.729D-03-0.169D-02-0.613D-02
 Coeff-Com:  0.133D-02 0.125D-01 0.105D+00 0.890D+00
 Coeff:      0.275D-05-0.514D-03-0.130D-03-0.729D-03-0.169D-02-0.613D-02
 Coeff:      0.133D-02 0.125D-01 0.105D+00 0.890D+00
 Gap=     0.121 Goal=   None    Shift=    0.000
 RMSDP=5.33D-08 MaxDP=1.90D-06 DE=-3.30D-09 OVMax= 1.08D-05

 Cycle  11  Pass 1  IDiag  1:
 RMSU=  2.61D-08    CP:  9.99D-01  8.69D-01  4.47D-01  4.15D-01  6.58D-01
                    CP:  8.40D-01  6.63D-01  6.68D-01  8.64D-01  1.13D+00
 E= -7517.81578113766     Delta-E=        0.000000000193 Rises=F Damp=F
 DIIS: error= 9.61D-08 at cycle  11 NSaved=  11.
 NSaved=11 IEnMin=10 EnMin= -7517.81578113786     IErMin=11 ErrMin= 9.61D-08
 ErrMax= 9.61D-08  0.00D+00 EMaxC= 1.00D-01 BMatC= 1.83D-11 BMatP= 8.31D-11
 IDIUse=1 WtCom= 1.00D+00 WtEn= 0.00D+00
 Coeff-Com: -0.485D-06 0.578D-03 0.286D-03 0.356D-03-0.457D-04-0.980D-02
 Coeff-Com: -0.101D-01-0.199D-01 0.200D-02 0.449D+00 0.587D+00
 Coeff:     -0.485D-06 0.578D-03 0.286D-03 0.356D-03-0.457D-04-0.980D-02
 Coeff:     -0.101D-01-0.199D-01 0.200D-02 0.449D+00 0.587D+00
 Gap=     0.121 Goal=   None    Shift=    0.000
 RMSDP=2.01D-08 MaxDP=1.16D-06 DE= 1.93D-10 OVMax= 2.77D-06

 Cycle  12  Pass 1  IDiag  1:
 RMSU=  1.39D-08    CP:  9.99D-01  8.69D-01  4.47D-01  4.15D-01  6.58D-01
                    CP:  8.40D-01  6.63D-01  6.75D-01  8.79D-01  1.21D+00
                    CP:  7.22D-01
 E= -7517.81578113769     Delta-E=       -0.000000000029 Rises=F Damp=F
 DIIS: error= 1.06D-07 at cycle  12 NSaved=  12.
 NSaved=12 IEnMin=10 EnMin= -7517.81578113786     IErMin=11 ErrMin= 9.61D-08
 ErrMax= 1.06D-07  0.00D+00 EMaxC= 1.00D-01 BMatC= 9.94D-12 BMatP= 1.83D-11
 IDIUse=1 WtCom= 1.00D+00 WtEn= 0.00D+00
 Coeff-Com: -0.695D-06 0.522D-03 0.245D-03 0.368D-03 0.171D-03-0.716D-02
 Coeff-Com: -0.826D-02-0.173D-01-0.102D-01 0.258D+00 0.461D+00 0.322D+00
 Coeff:     -0.695D-06 0.522D-03 0.245D-03 0.368D-03 0.171D-03-0.716D-02
 Coeff:     -0.826D-02-0.173D-01-0.102D-01 0.258D+00 0.461D+00 0.322D+00
 Gap=     0.121 Goal=   None    Shift=    0.000
 RMSDP=1.04D-08 MaxDP=4.58D-07 DE=-2.91D-11 OVMax= 1.14D-06

 Cycle  13  Pass 1  IDiag  1:
 RMSU=  5.07D-09    CP:  9.99D-01  8.69D-01  4.47D-01  4.15D-01  6.58D-01
                    CP:  8.40D-01  6.63D-01  6.76D-01  8.83D-01  1.22D+00
                    CP:  8.46D-01  4.11D-01
 E= -7517.81578113772     Delta-E=       -0.000000000029 Rises=F Damp=F
 DIIS: error= 2.23D-08 at cycle  13 NSaved=  13.
 NSaved=13 IEnMin=10 EnMin= -7517.81578113786     IErMin=13 ErrMin= 2.23D-08
 ErrMax= 2.23D-08  0.00D+00 EMaxC= 1.00D-01 BMatC= 6.00D-13 BMatP= 9.94D-12
 IDIUse=1 WtCom= 1.00D+00 WtEn= 0.00D+00
 Coeff-Com: -0.304D-06 0.178D-03 0.795D-04 0.142D-03 0.136D-03-0.196D-02
 Coeff-Com: -0.257D-02-0.580D-02-0.670D-02 0.398D-01 0.127D+00 0.208D+00
 Coeff-Com:  0.642D+00
 Coeff:     -0.304D-06 0.178D-03 0.795D-04 0.142D-03 0.136D-03-0.196D-02
 Coeff:     -0.257D-02-0.580D-02-0.670D-02 0.398D-01 0.127D+00 0.208D+00
 Coeff:      0.642D+00
 Gap=     0.121 Goal=   None    Shift=    0.000
 RMSDP=3.00D-09 MaxDP=1.18D-07 DE=-2.91D-11 OVMax= 6.20D-07

 SCF Done:  E(RPBE1PBE) =  -7517.81578114     A.U. after   13 cycles
            NFock= 13  Conv=0.30D-08     -V/T= 2.1284
 KE= 6.662198509497D+03 PE=-2.474726317750D+04 EE= 6.989447189135D+03
 Leave Link  502 at Tue Mar  6 15:34:12 2018, MaxMem=   536870912 cpu:      2680.6
 (Enter /share/apps//mg09/l701.exe)
 Compute integral first derivatives.
 ... and contract with generalized density number  0.
   1 Symmetry operations used in ECPInt.
 ECPInt:  NShTT=   10440 NPrTT=   41973 LenC2=    9694 LenP2D=   27663.
 LDataN:  DoStor=T MaxTD1= 9 Len=  602
 Leave Link  701 at Tue Mar  6 15:34:36 2018, MaxMem=   536870912 cpu:        85.2
 (Enter /share/apps//mg09/l702.exe)
 L702 exits ... SP integral derivatives will be done elsewhere.
 Leave Link  702 at Tue Mar  6 15:34:36 2018, MaxMem=   536870912 cpu:         0.0
 (Enter /share/apps//mg09/l703.exe)
 Compute integral first derivatives, UseDBF=F ICtDFT=           0.
 Integral derivatives from FoFJK, PRISM(SPDF).
 Calling FoFJK, ICntrl=      2127 FMM=F ISym2X=0 I1Cent= 0 IOpClX= 0 NMat=1 NMatS=1 NMatT=0.
 FoFJK:  IHMeth= 1 ICntrl=    2127 DoSepK=F KAlg= 0 I1Cent=   0 FoldK=F
 IRaf=         0 NMat=   1 IRICut=       1 DoRegI=T DoRafI=F ISym2E= 0.
 FoFCou: FMM=F IPFlag=           0 FMFlag=      100000 FMFlg1=         800
         NFxFlg=           0 DoJE=F BraDBF=F KetDBF=F FulRan=T
         wScrn=  0.000000 ICntrl=    2127 IOpCl=  0 I1Cent=           0 NGrid=           0
         NMat0=    1 NMatS0=      1 NMatT0=    0 NMatD0=    1 NMtDS0=    0 NMtDT0=    0
 Symmetry not used in FoFCou.
 Defaulting to unpruned grid for atomic number  83.
 Defaulting to unpruned grid for atomic number  83.
 Defaulting to unpruned grid for atomic number  83.
 Defaulting to unpruned grid for atomic number  83.
 Leave Link  703 at Tue Mar  6 15:38:20 2018, MaxMem=   536870912 cpu:       820.1
 (Enter /share/apps//mg09/l716.exe)
 Dipole        =-2.71681841D-03-4.19788951D-01-5.13353842D-01
 ***** Axes restored to original set *****
 -------------------------------------------------------------------
 Center     Atomic                   Forces (Hartrees/Bohr)
 Number     Number              X              Y              Z
 -------------------------------------------------------------------
      1       32          -0.005602416    0.001626635    0.004940671
      2       32           0.000016833   -0.004206546   -0.004898097
      3       83           0.000212059    0.001183446   -0.000974603
      4       50          -0.000009017    0.003913734   -0.004088711
      5       32           0.005639024    0.001741913    0.004983787
      6       83           0.002939226    0.000634457   -0.000023605
      7       83          -0.000302179    0.001080703   -0.001022779
      8       50           0.000064698   -0.006570159    0.001155844
      9       83          -0.002958227    0.000595818   -0.000072506
 -------------------------------------------------------------------
 Cartesian Forces:  Max     0.006570159 RMS     0.003098370
 Leave Link  716 at Tue Mar  6 15:38:21 2018, MaxMem=   536870912 cpu:         0.1
 (Enter /share/apps//mg09/l103.exe)

 GradGradGradGradGradGradGradGradGradGradGradGradGradGradGradGradGradGrad
 Berny optimization.
 Search for a local minimum.
 Step number   2 out of a maximum of  100
 All quantities printed in internal units (Hartrees-Bohrs-Radians)
 Update second derivatives using D2CorN and points    1    2
 DE= -5.68D-03 DEPred=-4.19D-03 R= 1.35D+00
 TightC=F SS=  1.41D+00  RLast= 2.23D-01 DXNew= 5.0454D-01 6.6776D-01
 Trust test= 1.35D+00 RLast= 2.23D-01 DXMaxT set to 5.05D-01
 ITU=  1  0
     Eigenvalues ---    0.08515   0.09374   0.12077   0.12105   0.12441
     Eigenvalues ---    0.13687   0.14764   0.14766   0.15557   0.15811
     Eigenvalues ---    0.16876   0.21647   0.22776   0.23908   0.23953
     Eigenvalues ---    0.24638   0.27211   0.27411   0.28737   0.30684
     Eigenvalues ---    0.31106
 RFO step:  Lambda=-3.73607690D-04 EMin= 8.51460870D-02
 Quartic linear search produced a step of  0.60497.
 TrRot=  0.000002  0.000219  0.000158  0.000000 -0.000001  0.000000
 Variable       Old X    -DE/DX   Delta X   Delta X   Delta X     New X
                                 (Linear)    (Quad)   (Total)
    X1        2.55502  -0.00560  -0.03748  -0.00983  -0.04730   2.50772
    Y1        0.31095   0.00163   0.00517   0.00458   0.00997   0.32092
    Z1       -4.25730   0.00494   0.03858   0.00862   0.04736  -4.20994
    X2       -0.02864   0.00002   0.00022  -0.00009   0.00013  -0.02851
    Y2        3.87782  -0.00421  -0.03218   0.00147  -0.03050   3.84732
    Z2        3.43393  -0.00490  -0.03665  -0.01009  -0.04658   3.38735
    X3        2.83181   0.00021  -0.02214   0.01573  -0.00641   2.82541
    Y3       -3.58676   0.00118   0.02987  -0.01303   0.01706  -3.56971
    Z3       -0.42208  -0.00097  -0.00168  -0.00637  -0.00789  -0.42997
    X4        0.01144  -0.00001  -0.00010   0.00003  -0.00007   0.01137
    Y4       -1.44628   0.00391   0.02455   0.00569   0.03046  -1.41582
[...]
     X                        X    X                                                                                                 
     X                        X    X                                                                                                 
     X                        X    X                                                                                                 
     X                        X    X                                                                                                 
     X                        X    X                                                                                                 
     X                        X    X                                                                                                 
     X                        X    X                                                                                                 
     X                             X                                                                                                 
     X                             X                                                                                                 
     X                             X                                                                                                 
     X                                                                                                                               
     X                                                                                                                               
 
 ***** Axes restored to original set *****
 -------------------------------------------------------------------
 Center     Atomic                   Forces (Hartrees/Bohr)
 Number     Number              X              Y              Z
 -------------------------------------------------------------------
      1       32           0.000084982    0.000016483   -0.000055798
      2       32           0.000000707    0.000167742   -0.000067453
      3       83          -0.000006125    0.000057628   -0.000027816
      4       50          -0.000001054    0.000116591   -0.000028545
      5       32          -0.000083646    0.000012108   -0.000054841
      6       83           0.000059470   -0.000183301    0.000123125
      7       83           0.000004293    0.000056721   -0.000023942
      8       50          -0.000002602   -0.000057181    0.000007483
      9       83          -0.000056024   -0.000186791    0.000127786
 -------------------------------------------------------------------
 Cartesian Forces:  Max     0.000186791 RMS     0.000082951
 Force constants in Cartesian coordinates: 
                1             2             3             4             5 
      1  0.539863D-01
      2 -0.978883D-02  0.455546D-01
      3 -0.544793D-02  0.885109D-03  0.686562D-01
      4  0.252976D-03  0.294702D-02  0.208995D-02  0.569584D-01
      5  0.155972D-02 -0.149706D-02  0.141288D-02  0.000000D+00  0.583372D-01
      6 -0.201284D-02 -0.174654D-02 -0.433091D-02 -0.151794D-03  0.194120D-01
      7  0.436298D-03  0.177495D-02  0.124493D-02 -0.118078D-02 -0.103863D-02
      8  0.335040D-02 -0.208043D-01  0.153690D-01  0.254711D-02 -0.305852D-02
      9  0.143778D-02  0.151094D-01 -0.171587D-01  0.168559D-02 -0.386461D-02
     10 -0.841331D-03 -0.494036D-02  0.497279D-02 -0.146314D-03  0.238092D-03
     11 -0.301984D-02  0.993027D-03 -0.244774D-02  0.238717D-03 -0.315050D-01
     12 -0.294981D-02  0.257509D-02 -0.608567D-02 -0.249785D-04  0.314893D-02
     13 -0.336446D-01  0.151795D-03 -0.361279D-02  0.322641D-03 -0.153102D-02
     14 -0.661432D-03 -0.881175D-04 -0.286473D-02 -0.291951D-02 -0.156179D-02
     15  0.366935D-02 -0.281028D-02 -0.414880D-02 -0.211516D-02  0.138016D-02
     16 -0.372141D-02  0.160418D-02  0.130240D-02 -0.284788D-01 -0.975386D-02
     17 -0.127994D-02 -0.378538D-02 -0.263168D-03 -0.135886D-01 -0.753562D-02
     18  0.578334D-02 -0.116782D-02 -0.439414D-02 -0.146990D-01 -0.994854D-02
     19 -0.279539D-02 -0.260507D-02 -0.781928D-03 -0.115964D-02  0.106578D-02
     20  0.139801D-02 -0.131689D-02  0.363956D-03 -0.251783D-02 -0.308114D-02
     21  0.226364D-02  0.527392D-02 -0.104034D-02 -0.162446D-02 -0.389062D-02
     22 -0.412405D-02  0.125043D-01  0.770541D-02  0.224448D-02  0.387699D-04
     23  0.112697D-01 -0.190746D-01 -0.482617D-02  0.393736D-04 -0.291628D-02
     24  0.672739D-02 -0.865490D-02 -0.475182D-02 -0.222526D-04  0.207799D-02
     25 -0.954882D-02 -0.164796D-02 -0.747282D-02 -0.288130D-01  0.942109D-02
     26 -0.282782D-02  0.186793D-04 -0.762910D-02  0.132537D-01 -0.718172D-02
     27 -0.947091D-02 -0.946402D-02 -0.267458D-01  0.148621D-01 -0.972817D-02
                6             7             8             9            10 
      6  0.547796D-01
      7 -0.571214D-03  0.752152D-01
      8 -0.146297D-03 -0.388197D-02  0.807595D-01
      9 -0.362084D-03 -0.766024D-02  0.346927D-02  0.339677D-01
     10 -0.425133D-04 -0.375936D-02  0.683264D-02  0.109098D-01  0.242558D-01
     11  0.549598D-02  0.422047D-02 -0.671827D-02 -0.410618D-02 -0.202822D-03
     12 -0.325781D-02  0.878603D-02 -0.692278D-02 -0.166966D-01  0.540027D-04
     13  0.203401D-02 -0.281451D-02 -0.141805D-02 -0.234346D-02 -0.962186D-03
     14 -0.171567D-02  0.258829D-02 -0.130040D-02  0.523914D-02  0.491015D-02
     15 -0.433027D-02  0.776313D-03  0.377952D-03 -0.103754D-02 -0.493705D-02
     16 -0.131568D-01 -0.214302D-02  0.388133D-03  0.817763D-03 -0.565806D-02
     17 -0.110999D-01  0.802233D-02  0.194779D-02 -0.166095D-02  0.723653D-02
     18 -0.106117D-01 -0.833919D-03  0.810277D-03 -0.279881D-02 -0.324314D-02
     19  0.574161D-03 -0.572604D-01 -0.658863D-03 -0.549639D-03 -0.359074D-02
     20 -0.135805D-03 -0.152674D-03 -0.420268D-02 -0.400096D-02 -0.678448D-02
     21 -0.365344D-03  0.631410D-03 -0.399048D-02  0.361946D-02 -0.108488D-01
     22 -0.135878D-04 -0.130891D-02  0.258679D-02 -0.342123D-02 -0.384679D-02
     23  0.839436D-03 -0.214761D-02 -0.547878D-02  0.132673D-02 -0.120441D-04
     24 -0.208873D-01 -0.164952D-02 -0.559482D-05 -0.199255D-02 -0.481080D-04
     25  0.133406D-01 -0.718446D-02 -0.974620D-02 -0.876351D-03 -0.545101D-02
     26 -0.109032D-01 -0.938516D-02 -0.411444D-01 -0.115119D-01 -0.727771D-02
     27 -0.106343D-01 -0.723786D-03 -0.896131D-02  0.245906D-02  0.318308D-02
               11            12            13            14            15 
     11  0.492097D-01
     12 -0.557478D-02  0.637420D-01
     13  0.298544D-02  0.290748D-02  0.536999D-01
     14  0.111340D-02  0.261457D-02  0.991091D-02  0.458700D-01
     15 -0.252369D-02 -0.608129D-02  0.545281D-02  0.945191D-03  0.686496D-01
     16  0.544656D-02 -0.279785D-02 -0.960228D-02  0.149428D-02  0.757903D-02
     17 -0.186701D-02  0.547551D-02  0.267295D-02  0.855690D-04 -0.751216D-02
     18  0.349232D-02 -0.604233D-02  0.959912D-02 -0.931022D-02 -0.267607D-01
     19 -0.416953D-02 -0.868009D-02  0.503779D-03 -0.143500D-02 -0.149404D-02
     20 -0.688856D-02 -0.704941D-02 -0.301201D-02 -0.208944D-01  0.153619D-01
     21 -0.427012D-02 -0.166800D-01 -0.167904D-02  0.150953D-01 -0.171610D-01
     22 -0.107037D-04 -0.120298D-05 -0.378226D-02 -0.122822D-01 -0.763494D-02
     23 -0.227758D-02  0.216884D-03 -0.110417D-01 -0.194323D-01 -0.493576D-02
     24  0.639547D-02 -0.286181D-02 -0.659845D-02 -0.875042D-02 -0.474027D-02
     25 -0.548828D-02  0.270641D-02 -0.372051D-02 -0.160549D-02 -0.129632D-02
     26 -0.205968D-02  0.551598D-02  0.128165D-02 -0.379192D-02 -0.283330D-03
     27  0.353873D-02 -0.603645D-02 -0.575968D-02 -0.125313D-02 -0.438976D-02
               16            17            18            19            20 
     16  0.790489D-01
     17 -0.195920D-02  0.648093D-01
     18 -0.796561D-02  0.155728D-01  0.514427D-01
     19 -0.748680D-02  0.989629D-02  0.865598D-03  0.751089D-01
     20  0.102575D-01 -0.408298D-01 -0.897017D-02  0.378519D-02  0.808838D-01
     21  0.105516D-02 -0.115166D-01  0.245298D-02  0.759492D-02  0.358683D-02
     22 -0.144721D-01 -0.100115D-01  0.127594D-01 -0.130423D-02 -0.252323D-02
     23 -0.842072D-02 -0.848126D-02  0.706807D-02  0.221198D-02 -0.548832D-02
     24  0.109321D-01  0.851450D-02 -0.555025D-02  0.164932D-02  0.204253D-04
     25 -0.748645D-02 -0.988803D-03 -0.226582D-02 -0.201549D-02 -0.450467D-03
     26  0.943115D-03 -0.434358D-02  0.245328D-02 -0.809078D-02  0.181807D-02
     27  0.223387D-02  0.248993D-02  0.226213D-02  0.821692D-03  0.823220D-03
               21            22            23            24            25 
     21  0.339679D-01
     22  0.340066D-02  0.413735D-01
     23  0.138175D-02 -0.232665D-03  0.713554D-01
     24 -0.199198D-02  0.796930D-04 -0.794377D-02  0.483145D-01
     25 -0.793446D-03 -0.147796D-01  0.833361D-02 -0.110701D-01  0.789994D-01
     26 -0.166998D-02  0.993049D-02 -0.820632D-02  0.834630D-02  0.217251D-02
     27 -0.280165D-02 -0.128742D-01  0.687283D-02 -0.553857D-02  0.772787D-02
               26            27 
     26  0.648909D-01
     27  0.156819D-01  0.514254D-01
 Leave Link  716 at Tue Mar  6 18:03:07 2018, MaxMem=   536870912 cpu:         0.1
 (Enter /share/apps//mg09/l103.exe)

 GradGradGradGradGradGradGradGradGradGradGradGradGradGradGradGradGradGrad
 Berny optimization.
 Search for a local minimum.
 Step number   1 out of a maximum of    2
 All quantities printed in internal units (Hartrees-Bohrs-Radians)
 Second derivative matrix not updated -- analytic derivatives used.
 ITU=  0
     Eigenvalues ---    0.00359   0.02338   0.02491   0.03670   0.04361
     Eigenvalues ---    0.04764   0.05283   0.05513   0.05613   0.06083
     Eigenvalues ---    0.06361   0.06765   0.08267   0.09271   0.09558
     Eigenvalues ---    0.11178   0.11672   0.12268   0.13499   0.13979
     Eigenvalues ---    0.13987
 Angle between quadratic step and forces=  26.73 degrees.
 Linear search not attempted -- first point.
 TrRot=  0.000007  0.000178 -0.000073  0.000001 -0.000003  0.000001
 Variable       Old X    -DE/DX   Delta X   Delta X   Delta X     New X
                                 (Linear)    (Quad)   (Total)
    X1        2.49268   0.00008   0.00000   0.00169   0.00171   2.49440
    Y1        0.33005   0.00002   0.00000   0.00187   0.00206   0.33211
    Z1       -4.18944  -0.00006   0.00000  -0.00014  -0.00021  -4.18965
    X2       -0.02867   0.00000   0.00000  -0.00014  -0.00015  -0.02882
    Y2        3.85899   0.00017   0.00000   0.00615   0.00633   3.86532
    Z2        3.35867  -0.00007   0.00000  -0.00351  -0.00358   3.35509
    X3        2.83229  -0.00001   0.00000  -0.00077  -0.00075   2.83154
    Y3       -3.58582   0.00006   0.00000  -0.00086  -0.00067  -3.58650
    Z3       -0.44446  -0.00003   0.00000  -0.00339  -0.00346  -0.44792
    X4        0.01134   0.00000   0.00000   0.00029   0.00029   0.01163
    Y4       -1.39058   0.00012   0.00000   0.00450   0.00468  -1.38590
    Z4        4.19712  -0.00003   0.00000  -0.00019  -0.00027   4.19685
    X5       -2.50098  -0.00008   0.00000  -0.00121  -0.00119  -2.50217
    Y5        0.29254   0.00001   0.00000   0.00118   0.00135   0.29390
    Z5       -4.18804  -0.00005   0.00000  -0.00001  -0.00009  -4.18813
    X6       -4.15489   0.00006   0.00000   0.00057   0.00057  -4.15433
    Y6        1.75052  -0.00018   0.00000  -0.00554  -0.00537   1.74515
    Z6        0.78035   0.00012   0.00000   0.00473   0.00464   0.78500
    X7       -2.77746   0.00000   0.00000   0.00015   0.00017  -2.77730
    Y7       -3.62854   0.00006   0.00000  -0.00095  -0.00078  -3.62931
    Z7       -0.44369  -0.00002   0.00000  -0.00238  -0.00246  -0.44615
    X8       -0.03610   0.00000   0.00000  -0.00007  -0.00006  -0.03616
    Y8        4.62070  -0.00006   0.00000  -0.00214  -0.00197   4.61873
    Z8       -2.17174   0.00001   0.00000   0.00032   0.00025  -2.17150
    X9        4.12769  -0.00006   0.00000  -0.00058  -0.00058   4.12711
    Y9        1.81402  -0.00019   0.00000  -0.00583  -0.00564   1.80838
    Z9        0.77740   0.00013   0.00000   0.00523   0.00517   0.78258
         Item               Value     Threshold  Converged?
 Maximum Force            0.000187     0.000450     YES
 RMS     Force            0.000083     0.000300     YES
 Maximum Displacement     0.006332     0.001800     NO 
 RMS     Displacement     0.002846     0.001200     NO 
 Predicted change in Energy=-2.848705D-06
 GradGradGradGradGradGradGradGradGradGradGradGradGradGradGradGradGradGrad

 Leave Link  103 at Tue Mar  6 18:03:07 2018, MaxMem=   536870912 cpu:         0.0
 (Enter /share/apps//mg09/l9999.exe)
 1\1\GINC-COMPUTE-0-1\Freq\RPBE1PBE\def2TZVP\Bi4Ge3Sn2\RODRIGO\06-Mar-2
 018\0\\#P Geom=AllCheck Guess=TCheck SCRF=Check GenChk RPBE1PBE/def2TZ
 VP Freq\\01Final_coords.xyz_41\\0,1\Ge,1.3190720602,0.1746554239,-2.21
 69583925\Ge,-0.0151694244,2.0420883162,1.7773321061\Bi,1.4987844976,-1
 .8975348666,-0.2351975783\Sn,0.0060034094,-0.7358644573,2.2210184117\G
 e,-1.3234624582,0.154807292,-2.2162172673\Bi,-2.1986744882,0.926335257
 2,0.4129458411\Bi,-1.4697710696,-1.9201397165,-0.2347880862\Sn,-0.0191
 03732,2.4451681181,-1.1492357447\Bi,2.1842782052,0.959937633,0.4113847
 102\\Version=ES64L-G09RevD.01\State=1-A\HF=-7517.8172518\RMSD=5.052e-0
 9\RMSF=8.295e-05\ZeroPoint=0.0057999\Thermal=0.0232878\Dipole=0.003719
 8,-0.4535719,0.531149\DipoleDeriv=-0.0908813,0.0191736,-0.2283927,0.03
 81443,-0.1211866,-0.0052659,-0.0450791,0.010196,-0.0541702,-0.1866656,
 -0.0012048,-0.0018881,-0.0011949,-0.0234474,0.2511708,-0.0012785,0.171
 517,-0.0485217,-0.0111569,-0.1537555,0.0347884,-0.046532,-0.0453043,0.
 0362886,0.078864,0.0177137,-0.0817615,0.091694,-0.0000385,0.0007511,-0
 .0000407,0.0970614,-0.0821587,0.0005161,-0.0621642,0.2215345,-0.089900
 8,-0.0186411,0.2286333,-0.0376652,-0.1222599,-0.0019165,0.04505,0.0109
 058,-0.0541954,0.106396,-0.0726427,-0.001725,-0.0604303,-0.0270421,-0.
 0257379,0.0311063,-0.0476248,0.020372,-0.0141985,0.1542035,-0.0354775,
 0.0469923,-0.0422423,0.0357322,-0.0792156,0.0163908,-0.0813715,0.09039
 83,-0.0017581,0.0013694,-0.0017218,0.3095385,-0.1822847,0.0004724,-0.0
 68754,0.0574753,0.1043147,0.0746636,0.0019411,0.0624483,-0.0251173,-0.
 0258279,-0.0304356,-0.0481802,0.0206386\Polar=368.7359462,-0.1422013,3
 86.6866245,0.0579593,-7.2168547,374.4245688\PG=C01 [X(Bi4Ge3Sn2)]\NIma
 g=0\\0.05398633,-0.00978883,0.04555459,-0.00544793,0.00088511,0.068656
 17,0.00025298,0.00294702,0.00208995,0.05695844,0.00155972,-0.00149706,
 0.00141288,0.00000004,0.05833715,-0.00201284,-0.00174654,-0.00433091,-
 0.00015179,0.01941199,0.05477963,0.00043630,0.00177495,0.00124493,-0.0
 0118078,-0.00103863,-0.00057121,0.07521517,0.00335040,-0.02080426,0.01
 536896,0.00254711,-0.00305852,-0.00014630,-0.00388197,0.08075954,0.001
 43778,0.01510943,-0.01715865,0.00168559,-0.00386461,-0.00036208,-0.007
 66024,0.00346927,0.03396774,-0.00084133,-0.00494036,0.00497279,-0.0001
 4631,0.00023809,-0.00004251,-0.00375936,0.00683264,0.01090978,0.024255
 79,-0.00301984,0.00099303,-0.00244774,0.00023872,-0.03150502,0.0054959
 8,0.00422047,-0.00671827,-0.00410618,-0.00020282,0.04920970,-0.0029498
 1,0.00257509,-0.00608567,-0.00002498,0.00314893,-0.00325781,0.00878603
 ,-0.00692278,-0.01669662,0.00005400,-0.00557478,0.06374200,-0.03364461
 ,0.00015180,-0.00361279,0.00032264,-0.00153102,0.00203401,-0.00281451,
 -0.00141805,-0.00234346,-0.00096219,0.00298544,0.00290748,0.05369993,-
 0.00066143,-0.00008812,-0.00286473,-0.00291951,-0.00156179,-0.00171567
 ,0.00258829,-0.00130040,0.00523914,0.00491015,0.00111340,0.00261457,0.
 00991091,0.04586996,0.00366935,-0.00281028,-0.00414880,-0.00211516,0.0
 0138016,-0.00433027,0.00077631,0.00037795,-0.00103754,-0.00493705,-0.0
 0252369,-0.00608129,0.00545281,0.00094519,0.06864958,-0.00372141,0.001
 60418,0.00130240,-0.02847877,-0.00975386,-0.01315683,-0.00214302,0.000
 38813,0.00081776,-0.00565806,0.00544656,-0.00279785,-0.00960228,0.0014
 9428,0.00757903,0.07904892,-0.00127994,-0.00378538,-0.00026317,-0.0135
 8864,-0.00753562,-0.01109988,0.00802233,0.00194779,-0.00166095,0.00723
 653,-0.00186701,0.00547551,0.00267295,0.00008557,-0.00751216,-0.001959
 20,0.06480933,0.00578334,-0.00116782,-0.00439414,-0.01469895,-0.009948
 54,-0.01061165,-0.00083392,0.00081028,-0.00279881,-0.00324314,0.003492
 32,-0.00604233,0.00959912,-0.00931022,-0.02676066,-0.00796561,0.015572
 79,0.05144274,-0.00279539,-0.00260507,-0.00078193,-0.00115964,0.001065
 78,0.00057416,-0.05726042,-0.00065886,-0.00054964,-0.00359074,-0.00416
 953,-0.00868009,0.00050378,-0.00143500,-0.00149404,-0.00748680,0.00989
 629,0.00086560,0.07510893,0.00139801,-0.00131689,0.00036396,-0.0025178
 3,-0.00308114,-0.00013580,-0.00015267,-0.00420268,-0.00400096,-0.00678
 448,-0.00688856,-0.00704941,-0.00301201,-0.02089441,0.01536192,0.01025
 750,-0.04082984,-0.00897017,0.00378519,0.08088377,0.00226364,0.0052739
 2,-0.00104034,-0.00162446,-0.00389062,-0.00036534,0.00063141,-0.003990
 48,0.00361946,-0.01084885,-0.00427012,-0.01668002,-0.00167904,0.015095
 27,-0.01716100,0.00105516,-0.01151657,0.00245298,0.00759492,0.00358683
 ,0.03396790,-0.00412405,0.01250427,0.00770541,0.00224448,0.00003877,-0
 .00001359,-0.00130891,0.00258679,-0.00342123,-0.00384679,-0.00001070,-
 0.00000120,-0.00378226,-0.01228221,-0.00763494,-0.01447212,-0.01001152
 ,0.01275938,-0.00130423,-0.00252323,0.00340066,0.04137351,0.01126974,-
 0.01907459,-0.00482617,0.00003937,-0.00291628,0.00083944,-0.00214761,-
 0.00547878,0.00132673,-0.00001204,-0.00227758,0.00021688,-0.01104167,-
 0.01943230,-0.00493576,-0.00842072,-0.00848126,0.00706807,0.00221198,-
 0.00548832,0.00138175,-0.00023267,0.07135542,0.00672739,-0.00865490,-0
 .00475182,-0.00002225,0.00207799,-0.02088728,-0.00164952,-0.00000559,-
 0.00199255,-0.00004811,0.00639547,-0.00286181,-0.00659845,-0.00875042,
 -0.00474027,0.01093206,0.00851450,-0.00555025,0.00164932,0.00002043,-0
 .00199198,0.00007969,-0.00794377,0.04831453,-0.00954882,-0.00164796,-0
 .00747282,-0.02881302,0.00942109,0.01334061,-0.00718446,-0.00974620,-0
 .00087635,-0.00545101,-0.00548828,0.00270641,-0.00372051,-0.00160549,-
 0.00129632,-0.00748645,-0.00098880,-0.00226582,-0.00201549,-0.00045047
 ,-0.00079345,-0.01477963,0.00833361,-0.01107013,0.07899938,-0.00282782
 ,0.00001868,-0.00762910,0.01325370,-0.00718172,-0.01090321,-0.00938516
 ,-0.04114441,-0.01151188,-0.00727771,-0.00205968,0.00551598,0.00128165
 ,-0.00379192,-0.00028333,0.00094311,-0.00434358,0.00245328,-0.00809078
 ,0.00181807,-0.00166998,0.00993049,-0.00820632,0.00834630,0.00217251,0
 .06489089,-0.00947091,-0.00946402,-0.02674583,0.01486205,-0.00972817,-
 0.01063429,-0.00072379,-0.00896131,0.00245906,0.00318308,0.00353873,-0
 .00603645,-0.00575968,-0.00125313,-0.00438976,0.00223387,0.00248993,0.
 00226213,0.00082169,0.00082322,-0.00280165,-0.01287419,0.00687283,-0.0
 0553857,0.00772787,0.01568194,0.05142536\\-0.00008498,-0.00001648,0.00
 005580,-0.00000071,-0.00016774,0.00006745,0.00000613,-0.00005763,0.000
 02782,0.00000105,-0.00011659,0.00002855,0.00008365,-0.00001211,0.00005
 484,-0.00005947,0.00018330,-0.00012313,-0.00000429,-0.00005672,0.00002
 394,0.00000260,0.00005718,-0.00000748,0.00005602,0.00018679,-0.0001277
 9\\\@


            THE IRISH PIG
 'TWAS AN EVENING IN NOVEMBER,
 AS I VERY WELL REMEMBER
 I WAS STROLLING DOWN THE STREET IN DRUNKEN PRIDE,
 BUT MY KNEES WERE ALL A'FLUTTER
 SO I LANDED IN THE GUTTER,
 AND A PIG CAME UP AND LAY DOWN BY MY SIDE.

 YES, I LAY THERE IN THE GUTTER
 THINKING THOUGHTS I COULD NOT UTTER
 WHEN A COLLEEN PASSING BY DID SOFTLY SAY,
 'YE CAN TELL A MAN THAT BOOZES
 BY THE COMPANY THAT HE CHOOSES.' -
 AT THAT, THE PIG GOT UP AND WALKED AWAY!
     -- THE ECONOMIST, AUGUST 23, 1986
 Job cpu time:       0 days  4 hours 35 minutes 37.2 seconds.
 File lengths (MBytes):  RWF=    299 Int=      0 D2E=      0 Chk=     16 Scr=      1
 Normal termination of Gaussian 09 at Tue Mar  6 18:03:11 2018.
