 Entering Gaussian System, Link 0=/share/apps/mg09/g09
 Initial command:
 /share/apps//mg09/l1.exe "/state/partition1/gauss_tmp/Gau-3818.inp" -scrdir="/state/partition1/gauss_tmp/"
 Entering Link 1 = /share/apps//mg09/l1.exe PID=      3820.
  
 Copyright (c) 1988,1990,1992,1993,1995,1998,2003,2009,2013,
            Gaussian, Inc.  All Rights Reserved.
  
 This is part of the Gaussian(R) 09 program.  It is based on
 the Gaussian(R) 03 system (copyright 2003, Gaussian, Inc.),
 the Gaussian(R) 98 system (copyright 1998, Gaussian, Inc.),
 the Gaussian(R) 94 system (copyright 1995, Gaussian, Inc.),
 the Gaussian 92(TM) system (copyright 1992, Gaussian, Inc.),
 the Gaussian 90(TM) system (copyright 1990, Gaussian, Inc.),
 the Gaussian 88(TM) system (copyright 1988, Gaussian, Inc.),
 the Gaussian 86(TM) system (copyright 1986, Carnegie Mellon
 University), and the Gaussian 82(TM) system (copyright 1983,
 Carnegie Mellon University). Gaussian is a federally registered
 trademark of Gaussian, Inc.
  
 This software contains proprietary and confidential information,
 including trade secrets, belonging to Gaussian, Inc.
  
 This software is provided under written license and may be
 used, copied, transmitted, or stored only in accord with that
 written license.
  
 The following legend is applicable only to US Government
 contracts under FAR:
  
                    RESTRICTED RIGHTS LEGEND
  
 Use, reproduction and disclosure by the US Government is
 subject to restrictions as set forth in subparagraphs (a)
 and (c) of the Commercial Computer Software - Restricted
 Rights clause in FAR 52.227-19.
  
 Gaussian, Inc.
 340 Quinnipiac St., Bldg. 40, Wallingford CT 06492
  
  
 ---------------------------------------------------------------
 Warning -- This program may not be used in any manner that
 competes with the business of Gaussian, Inc. or will provide
 assistance to any competitor of Gaussian, Inc.  The licensee
 of this program is prohibited from giving any competitor of
 Gaussian, Inc. access to this program.  By using this program,
 the user acknowledges that Gaussian, Inc. is engaged in the
 business of creating and licensing software in the field of
 computational chemistry and represents and warrants to the
 licensee that it is not a competitor of Gaussian, Inc. and that
 it will not use this program in any manner prohibited above.
 ---------------------------------------------------------------
  

 Cite this work as:
 Gaussian 09, Revision D.01,
 M. J. Frisch, G. W. Trucks, H. B. Schlegel, G. E. Scuseria, 
 M. A. Robb, J. R. Cheeseman, G. Scalmani, V. Barone, B. Mennucci, 
 G. A. Petersson, H. Nakatsuji, M. Caricato, X. Li, H. P. Hratchian, 
 A. F. Izmaylov, J. Bloino, G. Zheng, J. L. Sonnenberg, M. Hada, 
 M. Ehara, K. Toyota, R. Fukuda, J. Hasegawa, M. Ishida, T. Nakajima, 
 Y. Honda, O. Kitao, H. Nakai, T. Vreven, J. A. Montgomery, Jr., 
 J. E. Peralta, F. Ogliaro, M. Bearpark, J. J. Heyd, E. Brothers, 
 K. N. Kudin, V. N. Staroverov, T. Keith, R. Kobayashi, J. Normand, 
 K. Raghavachari, A. Rendell, J. C. Burant, S. S. Iyengar, J. Tomasi, 
 M. Cossi, N. Rega, J. M. Millam, M. Klene, J. E. Knox, J. B. Cross, 
 V. Bakken, C. Adamo, J. Jaramillo, R. Gomperts, R. E. Stratmann, 
 O. Yazyev, A. J. Austin, R. Cammi, C. Pomelli, J. W. Ochterski, 
 R. L. Martin, K. Morokuma, V. G. Zakrzewski, G. A. Voth, 
 P. Salvador, J. J. Dannenberg, S. Dapprich, A. D. Daniels, 
 O. Farkas, J. B. Foresman, J. V. Ortiz, J. Cioslowski, 
 and D. J. Fox, Gaussian, Inc., Wallingford CT, 2013.
 
 ******************************************
 Gaussian 09:  ES64L-G09RevD.01 24-Apr-2013
                 6-Mar-2018 
 ******************************************
 %NProcShared=4
 Will use up to    4 processors via shared memory.
 %LindaWorkers=compute-0-5
 %chk=Isomer_36.chk
 %NProc=4
 Will use up to    4 processors via shared memory.
 %mem=4GB
 SetLPE:  input flags=" -vv -opt "Tsnet.Node.lindarsharg: ssh" "
 SetLPE:    new flags=" -vv -opt "Tsnet.Node.lindarsharg: ssh"  -nodelist 'compute-0-5.local'"
 Will use up to    1 processors via Linda.
 ----------------------------------------------------------------------
 #p PBE1PBE/Def2TZVP scf=(maxcycle=768) opt=(cartesian,maxcycle=512) fr
 eq
 ----------------------------------------------------------------------
 1/6=512,10=7,14=-1,18=10,26=3,38=1/1,3;
 2/12=2,17=6,18=5,29=2,40=1/2;
 3/5=44,7=101,11=2,16=1,25=1,30=1,71=1,74=-13/1,2,3;
 4//1;
 5/5=2,7=768,38=5/2;
 6/7=2,8=2,9=2,10=2,28=1/1;
 7/7=1,29=1/1,2,3,16;
 1/6=512,10=7,14=-1,18=10,26=3/3(2);
 2/29=1/2;
 99/12=1/99;
 2/29=1/2;
 3/5=44,7=101,11=2,16=1,25=1,30=1,71=1,74=-13/1,2,3;
 4/5=5,16=3,69=1/1;
 5/5=2,7=768,38=5/2;
 7/7=1/1,2,3,16;
 1/6=512,14=-1,18=10,26=3/3(-5);
 2/29=1/2;
 6/7=2,8=2,9=2,10=2,19=2,28=1/1;
 99/9=1,12=1/99;
 Leave Link    1 at Tue Mar  6 14:29:43 2018, MaxMem=   536870912 cpu:         0.2
 (Enter /share/apps//mg09/l101.exe)
 ---------------------
 01Final_coords.xyz_36
 ---------------------
 Symbolic Z-matrix:
 Charge =  0 Multiplicity = 1
 50                   -0.82666   2.39133   0.66756 
 50                   -0.8373   -2.38282   0.68125 
 83                    1.2304   -0.00459   1.88414 
 83                    1.75971  -1.53038  -0.73682 
 83                    1.77263   1.52274  -0.73338 
 32                   -0.74498  -1.40234  -2.17965 
 32                   -1.57701   0.01206   2.29522 
 83                   -2.58384   0.00583  -0.42959 
 32                   -0.72958   1.3936   -2.18247 
 
 NAtoms=      9 NQM=        9 NQMF=       0 NMMI=      0 NMMIF=      0
                NMic=       0 NMicF=      0.
                    Isotopes and Nuclear Properties:
 (Nuclear quadrupole moments (NQMom) in fm**2, nuclear magnetic moments (NMagM)
  in nuclear magnetons)

  Atom         1           2           3           4           5           6           7           8           9
 IAtWgt=         118         118         209         209         209          74          74         209          74
 AtmWgt= 117.9018000 117.9018000 208.9804000 208.9804000 208.9804000  73.9211788  73.9211788 208.9804000  73.9211788
 NucSpn=           0           0           9           9           9           0           0           9           0
 AtZEff=   0.0000000   0.0000000   0.0000000   0.0000000   0.0000000   0.0000000   0.0000000   0.0000000   0.0000000
 NQMom=    0.0000000   0.0000000 -51.6000000 -51.6000000 -51.6000000   0.0000000   0.0000000 -51.6000000   0.0000000
 NMagM=    0.0000000   0.0000000   4.1106000   4.1106000   4.1106000   0.0000000   0.0000000   4.1106000   0.0000000
 AtZNuc=  50.0000000  50.0000000  83.0000000  83.0000000  83.0000000  32.0000000  32.0000000  83.0000000  32.0000000
 Leave Link  101 at Tue Mar  6 14:29:43 2018, MaxMem=   536870912 cpu:         0.3
 (Enter /share/apps//mg09/l103.exe)

 GradGradGradGradGradGradGradGradGradGradGradGradGradGradGradGradGradGrad
 Berny optimization.
 Initialization pass.
 No Z-matrix variables, so optimization will use Cartesian coordinates.
 Trust Radius=3.00D-01 FncErr=1.00D-07 GrdErr=1.00D-06
 Number of steps in this run=    100 maximum allowed number of steps=    100.
 GradGradGradGradGradGradGradGradGradGradGradGradGradGradGradGradGradGrad

 Leave Link  103 at Tue Mar  6 14:29:43 2018, MaxMem=   536870912 cpu:         0.1
 (Enter /share/apps//mg09/l202.exe)
 ---------------------------------------------------------------------------------------------------
                            Z-MATRIX (ANGSTROMS AND DEGREES)
   CD    Cent   Atom    N1       Length/X        N2       Alpha/Y        N3        Beta/Z          J
 ---------------------------------------------------------------------------------------------------
      1      1  Sn       0  -0.826662          2.391325          0.667562
      2      2  Sn       0  -0.837300         -2.382821          0.681246
      3      3  Bi       0   1.230400         -0.004588          1.884139
      4      4  Bi       0   1.759714         -1.530381         -0.736821
      5      5  Bi       0   1.772627          1.522740         -0.733384
      6      6  Ge       0  -0.744984         -1.402343         -2.179652
      7      7  Ge       0  -1.577014          0.012061          2.295215
      8      8  Bi       0  -2.583841          0.005828         -0.429587
      9      9  Ge       0  -0.729582          1.393597         -2.182474
 ---------------------------------------------------------------------------------------------------
                         Z-Matrix orientation:                         
 ---------------------------------------------------------------------
 Center     Atomic      Atomic             Coordinates (Angstroms)
 Number     Number       Type             X           Y           Z
 ---------------------------------------------------------------------
      1         50           0       -0.826662    2.391325    0.667562
      2         50           0       -0.837300   -2.382821    0.681246
      3         83           0        1.230400   -0.004588    1.884139
      4         83           0        1.759714   -1.530381   -0.736821
      5         83           0        1.772627    1.522740   -0.733384
      6         32           0       -0.744984   -1.402343   -2.179652
      7         32           0       -1.577014    0.012061    2.295215
      8         83           0       -2.583841    0.005828   -0.429587
      9         32           0       -0.729582    1.393597   -2.182474
 ---------------------------------------------------------------------
                    Distance matrix (angstroms):
                    1          2          3          4          5
     1  Sn   0.000000
     2  Sn   4.774177   0.000000
     3  Bi   3.384075   3.373178   0.000000
     4  Bi   4.903204   3.079294   3.078579   0.000000
     5  Bi   3.077888   4.905742   3.078663   3.053150   0.000000
     6  Ge   4.743966   3.025656   4.729721   2.893383   4.121428
     7  Ge   2.978788   2.981196   2.837399   4.765094   4.761791
     8  Bi   3.159432   3.160696   4.461151   4.617445   4.623000
     9  Ge   3.021190   4.740657   4.725864   4.103188   2.894407
                    6          7          8          9
     6  Ge   0.000000
     7  Ge   4.766261   0.000000
     8  Bi   2.902941   2.904873   0.000000
     9  Ge   2.795984   4.761983   2.904616   0.000000
 Stoichiometry    Bi4Ge3Sn2
 Framework group  C1[X(Bi4Ge3Sn2)]
 Deg. of freedom    21
 Full point group                 C1      NOp   1
 Largest Abelian subgroup         C1      NOp   1
 Largest concise Abelian subgroup C1      NOp   1
                         Standard orientation:                         
 ---------------------------------------------------------------------
 Center     Atomic      Atomic             Coordinates (Angstroms)
 Number     Number       Type             X           Y           Z
 ---------------------------------------------------------------------
      1         50           0       -0.826660    2.391326    0.667562
      2         50           0       -0.837302   -2.382820    0.681246
      3         83           0        1.230400   -0.004589    1.884139
      4         83           0        1.759713   -1.530382   -0.736821
      5         83           0        1.772628    1.522739   -0.733384
      6         32           0       -0.744985   -1.402342   -2.179652
      7         32           0       -1.577014    0.012062    2.295215
      8         83           0       -2.583841    0.005830   -0.429587
      9         32           0       -0.729581    1.393598   -2.182474
 ---------------------------------------------------------------------
 Rotational constants (GHZ):      0.1050080      0.0894762      0.0835523
 Leave Link  202 at Tue Mar  6 14:29:43 2018, MaxMem=   536870912 cpu:         0.1
 (Enter /share/apps//mg09/l301.exe)
 Standard basis: def2TZVP (5D, 7F)
 Ernie: Thresh=  0.10000D-02 Tol=  0.10000D-05 Strict=F.
 There are   519 symmetry adapted cartesian basis functions of A   symmetry.
 There are   444 symmetry adapted basis functions of A   symmetry.
   444 basis functions,   963 primitive gaussians,   519 cartesian basis functions
   116 alpha electrons      116 beta electrons
       nuclear repulsion energy      3523.5714775102 Hartrees.
 IExCor= 1009 DFT=T Ex+Corr=PBE1PBE ExCW=0 ScaHFX=  0.250000
 ScaDFX=  0.750000  0.750000  1.000000  1.000000 ScalE2=  1.000000  1.000000
 IRadAn=      0 IRanWt=     -1 IRanGd=            0 ICorTp=0 IEmpDi=  4
 NAtoms=    9 NActive=    9 NUniq=    9 SFac= 1.00D+00 NAtFMM=   60 NAOKFM=F Big=F
 Integral buffers will be    131072 words long.
 Raffenetti 2 integral format.
 Two-electron integral symmetry is turned on.
 Leave Link  301 at Tue Mar  6 14:29:43 2018, MaxMem=   536870912 cpu:         0.2
 (Enter /share/apps//mg09/l302.exe)
 NPDir=0 NMtPBC=     1 NCelOv=     1 NCel=       1 NClECP=     1 NCelD=      1
         NCelK=      1 NCelE2=     1 NClLst=     1 CellRange=     0.0.
 One-electron integrals computed using PRISM.
   1 Symmetry operations used in ECPInt.
 ECPInt:  NShTT=   10440 NPrTT=   41973 LenC2=    9656 LenP2D=   27454.
 LDataN:  DoStor=T MaxTD1= 8 Len=  415
 NBasis=   444 RedAO= T EigKep=  1.67D-03  NBF=   444
 NBsUse=   444 1.00D-06 EigRej= -1.00D+00 NBFU=   444
 Precomputing XC quadrature grid using
 IXCGrd= 4 IRadAn=           0 IRanWt=          -1 IRanGd=           0 AccXCQ= 0.00D+00.
 Defaulting to unpruned grid for atomic number  50.
 Defaulting to unpruned grid for atomic number  83.
 Defaulting to unpruned grid for atomic number  83.
 Generated NRdTot=       0 NPtTot=           0 NUsed=           0 NTot=          32
 NSgBfM=   507   507   507   507   507 MxSgAt=     9 MxSgA2=     9.
 Leave Link  302 at Tue Mar  6 14:29:50 2018, MaxMem=   536870912 cpu:        25.7
 (Enter /share/apps//mg09/l303.exe)
 DipDrv:  MaxL=1.
 Leave Link  303 at Tue Mar  6 14:29:50 2018, MaxMem=   536870912 cpu:         0.2
 (Enter /share/apps//mg09/l401.exe)
 ExpMin= 4.62D-02 ExpMax= 4.66D+05 ExpMxC= 4.50D+03 IAcc=2 IRadAn=         4 AccDes= 0.00D+00
 Harris functional with IExCor= 1009 and IRadAn=       4 diagonalized for initial guess.
 HarFok:  IExCor= 1009 AccDes= 0.00D+00 IRadAn=         4 IDoV= 1 UseB2=F ITyADJ=14
 ICtDFT=  3500011 ScaDFX=  1.000000  1.000000  1.000000  1.000000
 Defaulting to unpruned grid for atomic number  50.
 Defaulting to unpruned grid for atomic number  50.
 Defaulting to unpruned grid for atomic number  50.
 Defaulting to unpruned grid for atomic number  50.
 FoFCou: FMM=F IPFlag=           0 FMFlag=      100000 FMFlg1=           0
         NFxFlg=           0 DoJE=T BraDBF=F KetDBF=T FulRan=T
         wScrn=  0.000000 ICntrl=     500 IOpCl=  0 I1Cent=   200000004 NGrid=           0
         NMat0=    1 NMatS0=      1 NMatT0=    0 NMatD0=    1 NMtDS0=    0 NMtDT0=    0
 Petite list used in FoFCou.
 Harris En= -7518.60357390755    
 JPrj=0 DoOrth=F DoCkMO=F.
 Leave Link  401 at Tue Mar  6 14:29:52 2018, MaxMem=   536870912 cpu:        10.1
 (Enter /share/apps//mg09/l502.exe)
 Closed shell SCF:
 Using DIIS extrapolation, IDIIS=  1040.
 Integral symmetry usage will be decided dynamically.
 IVT=     1410107 IEndB=     1410107 NGot=   536870912 MDV=   536322046
 LenX=   536322046 LenY=   536052166
 Requested convergence on RMS density matrix=1.00D-08 within 768 cycles.
 Requested convergence on MAX density matrix=1.00D-06.
 Requested convergence on             energy=1.00D-06.
 No special actions if energy rises.
 Fock matrices will be formed incrementally for  20 cycles.

 Cycle   1  Pass 1  IDiag  1:
 FoFJK:  IHMeth= 1 ICntrl=       0 DoSepK=F KAlg= 0 I1Cent=   0 FoldK=F
 IRaf= 880000000 NMat=   1 IRICut=       1 DoRegI=T DoRafI=F ISym2E= 0.
 FoFCou: FMM=F IPFlag=           0 FMFlag=      100000 FMFlg1=           0
         NFxFlg=           0 DoJE=F BraDBF=F KetDBF=F FulRan=T
         wScrn=  0.000000 ICntrl=       0 IOpCl=  0 I1Cent=           0 NGrid=           0
         NMat0=    1 NMatS0=      1 NMatT0=    0 NMatD0=    1 NMtDS0=    0 NMtDT0=    0
 Symmetry not used in FoFCou.
 Defaulting to unpruned grid for atomic number  50.
 Defaulting to unpruned grid for atomic number  50.
 Defaulting to unpruned grid for atomic number  50.
 Defaulting to unpruned grid for atomic number  50.
 E= -7517.25535267186    
 DIIS: error= 3.52D-02 at cycle   1 NSaved=   1.
 NSaved= 1 IEnMin= 1 EnMin= -7517.25535267186     IErMin= 1 ErrMin= 3.52D-02
 ErrMax= 3.52D-02  0.00D+00 EMaxC= 1.00D-01 BMatC= 1.44D+00 BMatP= 1.44D+00
 IDIUse=3 WtCom= 6.48D-01 WtEn= 3.52D-01
 Coeff-Com:  0.100D+01
 Coeff-En:   0.100D+01
 Coeff:      0.100D+01
 Gap=     0.099 Goal=   None    Shift=    0.000
 GapD=    0.099 DampG=0.500 DampE=0.500 DampFc=0.2500 IDamp=-1.
 Damping current iteration by 2.50D-01
 RMSDP=5.00D-03 MaxDP=2.43D-01              OVMax= 4.74D-01

 Cycle   2  Pass 1  IDiag  1:
 RMSU=  1.25D-03    CP:  1.00D+00
 E= -7517.42599142085     Delta-E=       -0.170638748987 Rises=F Damp=T
 DIIS: error= 2.28D-02 at cycle   2 NSaved=   2.
 NSaved= 2 IEnMin= 2 EnMin= -7517.42599142085     IErMin= 2 ErrMin= 2.28D-02
 ErrMax= 2.28D-02  0.00D+00 EMaxC= 1.00D-01 BMatC= 4.43D-01 BMatP= 1.44D+00
 IDIUse=3 WtCom= 7.72D-01 WtEn= 2.28D-01
 Coeff-Com: -0.808D+00 0.181D+01
 Coeff-En:   0.000D+00 0.100D+01
 Coeff:     -0.624D+00 0.162D+01
 Gap=     0.173 Goal=   None    Shift=    0.000
 RMSDP=2.46D-03 MaxDP=1.21D-01 DE=-1.71D-01 OVMax= 5.45D-01

 Cycle   3  Pass 1  IDiag  1:
 RMSU=  2.43D-03    CP:  1.01D+00  6.99D-01
 E= -7516.88346744486     Delta-E=        0.542523975992 Rises=F Damp=F
 DIIS: error= 2.68D-02 at cycle   3 NSaved=   3.
 NSaved= 3 IEnMin= 2 EnMin= -7517.42599142085     IErMin= 2 ErrMin= 2.28D-02
 ErrMax= 2.68D-02  0.00D+00 EMaxC= 1.00D-01 BMatC= 7.15D-01 BMatP= 4.43D-01
 IDIUse=2 WtCom= 0.00D+00 WtEn= 1.00D+00
 Coeff-En:   0.000D+00 0.811D+00 0.189D+00
 Coeff:      0.000D+00 0.811D+00 0.189D+00
 Gap=     0.210 Goal=   None    Shift=    0.000
 RMSDP=3.13D-03 MaxDP=1.12D-01 DE= 5.43D-01 OVMax= 3.51D-01

 Cycle   4  Pass 1  IDiag  1:
 RMSU=  8.81D-04    CP:  1.01D+00  2.36D+00  1.05D-01
 E= -7517.53871296122     Delta-E=       -0.655245516360 Rises=F Damp=F
 DIIS: error= 1.25D-02 at cycle   4 NSaved=   4.
 NSaved= 4 IEnMin= 4 EnMin= -7517.53871296122     IErMin= 4 ErrMin= 1.25D-02
 ErrMax= 1.25D-02  0.00D+00 EMaxC= 1.00D-01 BMatC= 2.88D-01 BMatP= 4.43D-01
 IDIUse=3 WtCom= 8.75D-01 WtEn= 1.25D-01
 EnCoef did     6 forward-backward iterations
 Coeff-Com:  0.715D+00-0.776D+00 0.158D+00 0.903D+00
 Coeff-En:   0.739D-01 0.000D+00 0.247D+00 0.679D+00
 Coeff:      0.635D+00-0.679D+00 0.169D+00 0.875D+00
 Gap=     0.126 Goal=   None    Shift=    0.000
 RMSDP=1.42D-03 MaxDP=7.58D-02 DE=-6.55D-01 OVMax= 1.36D-01

 Cycle   5  Pass 1  IDiag  1:
 RMSU=  3.98D-04    CP:  1.00D+00  1.33D+00  2.78D-01  8.56D-01
 E= -7517.80372385137     Delta-E=       -0.265010890158 Rises=F Damp=F
 DIIS: error= 2.00D-03 at cycle   5 NSaved=   5.
 NSaved= 5 IEnMin= 5 EnMin= -7517.80372385137     IErMin= 5 ErrMin= 2.00D-03
 ErrMax= 2.00D-03  0.00D+00 EMaxC= 1.00D-01 BMatC= 8.81D-03 BMatP= 2.88D-01
 IDIUse=3 WtCom= 9.80D-01 WtEn= 2.00D-02
 Coeff-Com:  0.398D+00-0.538D+00 0.237D-01 0.432D+00 0.685D+00
 Coeff-En:   0.000D+00 0.000D+00 0.000D+00 0.000D+00 0.100D+01
 Coeff:      0.390D+00-0.528D+00 0.233D-01 0.423D+00 0.691D+00
 Gap=     0.120 Goal=   None    Shift=    0.000
 RMSDP=3.10D-04 MaxDP=1.82D-02 DE=-2.65D-01 OVMax= 3.51D-02

 Cycle   6  Pass 1  IDiag  1:
 RMSU=  2.04D-04    CP:  1.00D+00  1.36D+00  2.25D-01  9.55D-01  5.73D-01
 E= -7517.80624236226     Delta-E=       -0.002518510886 Rises=F Damp=F
 DIIS: error= 1.65D-03 at cycle   6 NSaved=   6.
 NSaved= 6 IEnMin= 6 EnMin= -7517.80624236226     IErMin= 6 ErrMin= 1.65D-03
 ErrMax= 1.65D-03  0.00D+00 EMaxC= 1.00D-01 BMatC= 3.77D-03 BMatP= 8.81D-03
 IDIUse=3 WtCom= 9.84D-01 WtEn= 1.65D-02
 Coeff-Com:  0.785D-01-0.114D+00 0.756D-02 0.103D+00 0.437D+00 0.489D+00
 Coeff-En:   0.000D+00 0.000D+00 0.000D+00 0.000D+00 0.404D+00 0.596D+00
 Coeff:      0.772D-01-0.112D+00 0.743D-02 0.101D+00 0.436D+00 0.491D+00
 Gap=     0.122 Goal=   None    Shift=    0.000
 RMSDP=2.31D-04 MaxDP=1.06D-02 DE=-2.52D-03 OVMax= 2.83D-02

 Cycle   7  Pass 1  IDiag  1:
 RMSU=  1.45D-04    CP:  1.00D+00  1.36D+00  2.52D-01  9.27D-01  7.32D-01
                    CP:  2.43D-01
 E= -7517.80731915599     Delta-E=       -0.001076793727 Rises=F Damp=F
 DIIS: error= 1.73D-03 at cycle   7 NSaved=   7.
 NSaved= 7 IEnMin= 7 EnMin= -7517.80731915599     IErMin= 6 ErrMin= 1.65D-03
 ErrMax= 1.73D-03  0.00D+00 EMaxC= 1.00D-01 BMatC= 2.29D-03 BMatP= 3.77D-03
 IDIUse=3 WtCom= 9.84D-01 WtEn= 1.65D-02
 EnCoef did     7 forward-backward iterations
 Coeff-Com:  0.801D-03-0.547D-02 0.324D-02 0.214D-01 0.279D+00 0.420D+00
 Coeff-Com:  0.281D+00
 Coeff-En:   0.000D+00 0.000D+00 0.000D+00 0.000D+00 0.126D+00 0.431D+00
 Coeff-En:   0.443D+00
 Coeff:      0.788D-03-0.538D-02 0.318D-02 0.211D-01 0.277D+00 0.420D+00
 Coeff:      0.284D+00
 Gap=     0.120 Goal=   None    Shift=    0.000
 RMSDP=1.29D-04 MaxDP=4.87D-03 DE=-1.08D-03 OVMax= 1.68D-02

 Cycle   8  Pass 1  IDiag  1:
 RMSU=  3.50D-05    CP:  1.00D+00  1.36D+00  2.60D-01  9.31D-01  7.26D-01
                    CP:  5.53D-01  2.71D-01
 E= -7517.81013097821     Delta-E=       -0.002811822220 Rises=F Damp=F
 DIIS: error= 3.04D-04 at cycle   8 NSaved=   8.
 NSaved= 8 IEnMin= 8 EnMin= -7517.81013097821     IErMin= 8 ErrMin= 3.04D-04
 ErrMax= 3.04D-04  0.00D+00 EMaxC= 1.00D-01 BMatC= 6.70D-05 BMatP= 2.29D-03
 IDIUse=3 WtCom= 9.97D-01 WtEn= 3.04D-03
 Coeff-Com: -0.618D-02 0.757D-02-0.149D-02 0.364D-02 0.984D-01 0.164D+00
 Coeff-Com:  0.165D+00 0.569D+00
 Coeff-En:   0.000D+00 0.000D+00 0.000D+00 0.000D+00 0.000D+00 0.000D+00
 Coeff-En:   0.621D-02 0.994D+00
 Coeff:     -0.616D-02 0.755D-02-0.148D-02 0.363D-02 0.981D-01 0.163D+00
 Coeff:      0.165D+00 0.571D+00
 Gap=     0.120 Goal=   None    Shift=    0.000
 RMSDP=2.64D-05 MaxDP=1.43D-03 DE=-2.81D-03 OVMax= 3.03D-03

 Cycle   9  Pass 1  IDiag  1:
 RMSU=  9.45D-06    CP:  1.00D+00  1.37D+00  2.53D-01  9.33D-01  7.32D-01
                    CP:  5.23D-01  3.31D-01  6.59D-01
 E= -7517.81022871889     Delta-E=       -0.000097740683 Rises=F Damp=F
 DIIS: error= 3.49D-05 at cycle   9 NSaved=   9.
 NSaved= 9 IEnMin= 9 EnMin= -7517.81022871889     IErMin= 9 ErrMin= 3.49D-05
 ErrMax= 3.49D-05  0.00D+00 EMaxC= 1.00D-01 BMatC= 2.31D-06 BMatP= 6.70D-05
 IDIUse=1 WtCom= 1.00D+00 WtEn= 0.00D+00
 Coeff-Com: -0.307D-02 0.398D-02-0.116D-02 0.932D-03 0.375D-01 0.650D-01
 Coeff-Com:  0.698D-01 0.285D+00 0.542D+00
 Coeff:     -0.307D-02 0.398D-02-0.116D-02 0.932D-03 0.375D-01 0.650D-01
 Coeff:      0.698D-01 0.285D+00 0.542D+00
 Gap=     0.119 Goal=   None    Shift=    0.000
 RMSDP=5.23D-06 MaxDP=3.27D-04 DE=-9.77D-05 OVMax= 5.75D-04

 Cycle  10  Pass 1  IDiag  1:
 RMSU=  3.43D-06    CP:  1.00D+00  1.37D+00  2.52D-01  9.34D-01  7.35D-01
                    CP:  5.28D-01  3.30D-01  7.09D-01  6.82D-01
 E= -7517.81023071207     Delta-E=       -0.000001993183 Rises=F Damp=F
 DIIS: error= 1.92D-05 at cycle  10 NSaved=  10.
 NSaved=10 IEnMin=10 EnMin= -7517.81023071207     IErMin=10 ErrMin= 1.92D-05
 ErrMax= 1.92D-05  0.00D+00 EMaxC= 1.00D-01 BMatC= 2.19D-07 BMatP= 2.31D-06
 IDIUse=1 WtCom= 1.00D+00 WtEn= 0.00D+00
 Coeff-Com: -0.991D-03 0.132D-02-0.381D-03-0.150D-03 0.741D-02 0.157D-01
 Coeff-Com:  0.175D-01 0.649D-01 0.249D+00 0.646D+00
 Coeff:     -0.991D-03 0.132D-02-0.381D-03-0.150D-03 0.741D-02 0.157D-01
 Coeff:      0.175D-01 0.649D-01 0.249D+00 0.646D+00
 Gap=     0.120 Goal=   None    Shift=    0.000
 RMSDP=2.16D-06 MaxDP=1.35D-04 DE=-1.99D-06 OVMax= 2.60D-04

 Cycle  11  Pass 1  IDiag  1:
 RMSU=  1.53D-06    CP:  1.00D+00  1.37D+00  2.52D-01  9.34D-01  7.35D-01
                    CP:  5.29D-01  3.32D-01  7.04D-01  8.07D-01  7.85D-01
 E= -7517.81023086052     Delta-E=       -0.000000148444 Rises=F Damp=F
 DIIS: error= 1.30D-05 at cycle  11 NSaved=  11.
 NSaved=11 IEnMin=11 EnMin= -7517.81023086052     IErMin=11 ErrMin= 1.30D-05
 ErrMax= 1.30D-05  0.00D+00 EMaxC= 1.00D-01 BMatC= 1.37D-07 BMatP= 2.19D-07
 IDIUse=1 WtCom= 1.00D+00 WtEn= 0.00D+00
 Coeff-Com: -0.730D-04 0.965D-04-0.141D-03-0.159D-03-0.452D-03 0.168D-02
 Coeff-Com:  0.247D-02 0.388D-02 0.104D+00 0.503D+00 0.386D+00
 Coeff:     -0.730D-04 0.965D-04-0.141D-03-0.159D-03-0.452D-03 0.168D-02
 Coeff:      0.247D-02 0.388D-02 0.104D+00 0.503D+00 0.386D+00
 Gap=     0.120 Goal=   None    Shift=    0.000
 RMSDP=1.30D-06 MaxDP=5.90D-05 DE=-1.48D-07 OVMax= 1.67D-04

 Cycle  12  Pass 1  IDiag  1:
 RMSU=  7.86D-07    CP:  1.00D+00  1.37D+00  2.52D-01  9.34D-01  7.35D-01
                    CP:  5.29D-01  3.33D-01  7.05D-01  8.14D-01  9.04D-01
                    CP:  4.07D-01
 E= -7517.81023100148     Delta-E=       -0.000000140961 Rises=F Damp=F
 DIIS: error= 6.21D-06 at cycle  12 NSaved=  12.
 NSaved=12 IEnMin=12 EnMin= -7517.81023100148     IErMin=12 ErrMin= 6.21D-06
 ErrMax= 6.21D-06  0.00D+00 EMaxC= 1.00D-01 BMatC= 3.08D-08 BMatP= 1.37D-07
 IDIUse=1 WtCom= 1.00D+00 WtEn= 0.00D+00
 Coeff-Com:  0.299D-03-0.407D-03-0.178D-04-0.811D-04-0.280D-02-0.342D-02
 Coeff-Com: -0.318D-02-0.163D-01 0.143D-01 0.259D+00 0.327D+00 0.425D+00
 Coeff:      0.299D-03-0.407D-03-0.178D-04-0.811D-04-0.280D-02-0.342D-02
 Coeff:     -0.318D-02-0.163D-01 0.143D-01 0.259D+00 0.327D+00 0.425D+00
 Gap=     0.120 Goal=   None    Shift=    0.000
 RMSDP=5.53D-07 MaxDP=3.77D-05 DE=-1.41D-07 OVMax= 6.06D-05

 Cycle  13  Pass 1  IDiag  1:
 RMSU=  2.79D-07    CP:  1.00D+00  1.37D+00  2.52D-01  9.34D-01  7.35D-01
                    CP:  5.30D-01  3.33D-01  7.08D-01  8.12D-01  9.38D-01
                    CP:  5.87D-01  5.76D-01
 E= -7517.81023103950     Delta-E=       -0.000000038017 Rises=F Damp=F
 DIIS: error= 1.41D-06 at cycle  13 NSaved=  13.
 NSaved=13 IEnMin=13 EnMin= -7517.81023103950     IErMin=13 ErrMin= 1.41D-06
 ErrMax= 1.41D-06  0.00D+00 EMaxC= 1.00D-01 BMatC= 1.81D-09 BMatP= 3.08D-08
 IDIUse=1 WtCom= 1.00D+00 WtEn= 0.00D+00
 Coeff-Com:  0.581D-04-0.778D-04 0.140D-04-0.720D-04-0.948D-03-0.123D-02
 Coeff-Com: -0.126D-02-0.510D-02-0.818D-02 0.477D-01 0.954D-01 0.214D+00
 Coeff-Com:  0.660D+00
 Coeff:      0.581D-04-0.778D-04 0.140D-04-0.720D-04-0.948D-03-0.123D-02
 Coeff:     -0.126D-02-0.510D-02-0.818D-02 0.477D-01 0.954D-01 0.214D+00
 Coeff:      0.660D+00
 Gap=     0.120 Goal=   None    Shift=    0.000
 RMSDP=1.77D-07 MaxDP=9.31D-06 DE=-3.80D-08 OVMax= 2.66D-05

 Cycle  14  Pass 1  IDiag  1:
 RMSU=  8.73D-08    CP:  1.00D+00  1.37D+00  2.52D-01  9.34D-01  7.35D-01
                    CP:  5.30D-01  3.33D-01  7.09D-01  8.14D-01  9.45D-01
                    CP:  5.90D-01  6.46D-01  8.17D-01
 E= -7517.81023104221     Delta-E=       -0.000000002714 Rises=F Damp=F
 DIIS: error= 2.31D-07 at cycle  14 NSaved=  14.
 NSaved=14 IEnMin=14 EnMin= -7517.81023104221     IErMin=14 ErrMin= 2.31D-07
 ErrMax= 2.31D-07  0.00D+00 EMaxC= 1.00D-01 BMatC= 1.03D-10 BMatP= 1.81D-09
 IDIUse=1 WtCom= 1.00D+00 WtEn= 0.00D+00
 Coeff-Com:  0.217D-04-0.293D-04 0.717D-05-0.153D-04-0.262D-03-0.405D-03
 Coeff-Com: -0.422D-03-0.126D-02-0.531D-02-0.214D-02 0.155D-01 0.619D-01
 Coeff-Com:  0.292D+00 0.641D+00
 Coeff:      0.217D-04-0.293D-04 0.717D-05-0.153D-04-0.262D-03-0.405D-03
 Coeff:     -0.422D-03-0.126D-02-0.531D-02-0.214D-02 0.155D-01 0.619D-01
 Coeff:      0.292D+00 0.641D+00
 Gap=     0.120 Goal=   None    Shift=    0.000
 RMSDP=4.95D-08 MaxDP=3.67D-06 DE=-2.71D-09 OVMax= 5.89D-06

 Cycle  15  Pass 1  IDiag  1:
 RMSU=  3.38D-08    CP:  1.00D+00  1.37D+00  2.52D-01  9.34D-01  7.35D-01
                    CP:  5.30D-01  3.33D-01  7.09D-01  8.15D-01  9.48D-01
                    CP:  5.92D-01  6.53D-01  8.95D-01  8.01D-01
 E= -7517.81023104265     Delta-E=       -0.000000000444 Rises=F Damp=F
 DIIS: error= 1.65D-07 at cycle  15 NSaved=  15.
 NSaved=15 IEnMin=15 EnMin= -7517.81023104265     IErMin=15 ErrMin= 1.65D-07
 ErrMax= 1.65D-07  0.00D+00 EMaxC= 1.00D-01 BMatC= 3.90D-11 BMatP= 1.03D-10
 IDIUse=1 WtCom= 1.00D+00 WtEn= 0.00D+00
 Coeff-Com:  0.303D-05-0.389D-05 0.292D-05-0.425D-05-0.520D-04-0.949D-04
 Coeff-Com: -0.957D-04-0.206D-03-0.190D-02-0.626D-02-0.970D-03 0.141D-01
 Coeff-Com:  0.103D+00 0.410D+00 0.483D+00
 Coeff:      0.303D-05-0.389D-05 0.292D-05-0.425D-05-0.520D-04-0.949D-04
 Coeff:     -0.957D-04-0.206D-03-0.190D-02-0.626D-02-0.970D-03 0.141D-01
 Coeff:      0.103D+00 0.410D+00 0.483D+00
 Gap=     0.120 Goal=   None    Shift=    0.000
 RMSDP=1.75D-08 MaxDP=9.83D-07 DE=-4.44D-10 OVMax= 1.81D-06

 Cycle  16  Pass 1  IDiag  1:
 RMSU=  9.38D-09    CP:  1.00D+00  1.37D+00  2.52D-01  9.34D-01  7.35D-01
                    CP:  5.30D-01  3.33D-01  7.09D-01  8.15D-01  9.49D-01
                    CP:  5.95D-01  6.58D-01  8.94D-01  8.93D-01  7.55D-01
 E= -7517.81023104286     Delta-E=       -0.000000000204 Rises=F Damp=F
 DIIS: error= 3.66D-08 at cycle  16 NSaved=  16.
 NSaved=16 IEnMin=16 EnMin= -7517.81023104286     IErMin=16 ErrMin= 3.66D-08
 ErrMax= 3.66D-08  0.00D+00 EMaxC= 1.00D-01 BMatC= 1.86D-12 BMatP= 3.90D-11
 IDIUse=1 WtCom= 1.00D+00 WtEn= 0.00D+00
 Coeff-Com: -0.333D-05 0.448D-05 0.625D-06 0.231D-06 0.265D-04 0.337D-04
 Coeff-Com:  0.407D-04 0.142D-03 0.799D-04-0.315D-02-0.390D-02-0.533D-02
 Coeff-Com: -0.508D-02 0.808D-01 0.156D+00 0.781D+00
 Coeff:     -0.333D-05 0.448D-05 0.625D-06 0.231D-06 0.265D-04 0.337D-04
 Coeff:      0.407D-04 0.142D-03 0.799D-04-0.315D-02-0.390D-02-0.533D-02
 Coeff:     -0.508D-02 0.808D-01 0.156D+00 0.781D+00
 Gap=     0.120 Goal=   None    Shift=    0.000
 RMSDP=6.60D-09 MaxDP=2.68D-07 DE=-2.04D-10 OVMax= 1.09D-06

 SCF Done:  E(RPBE1PBE) =  -7517.81023104     A.U. after   16 cycles
            NFock= 16  Conv=0.66D-08     -V/T= 2.1285
 KE= 6.661984289792D+03 PE=-2.463871190413D+04 EE= 6.935345905786D+03
 Leave Link  502 at Tue Mar  6 14:41:49 2018, MaxMem=   536870912 cpu:      2862.5
 (Enter /share/apps//mg09/l601.exe)
 Copying SCF densities to generalized density rwf, IOpCl= 0 IROHF=0.

 **********************************************************************

            Population analysis using the SCF density.

 **********************************************************************

 Orbital symmetries:
       Occupied  (A) (A) (A) (A) (A) (A) (A) (A) (A) (A) (A) (A)
                 (A) (A) (A) (A) (A) (A) (A) (A) (A) (A) (A) (A)
                 (A) (A) (A) (A) (A) (A) (A) (A) (A) (A) (A) (A)
                 (A) (A) (A) (A) (A) (A) (A) (A) (A) (A) (A) (A)
                 (A) (A) (A) (A) (A) (A) (A) (A) (A) (A) (A) (A)
                 (A) (A) (A) (A) (A) (A) (A) (A) (A) (A) (A) (A)
                 (A) (A) (A) (A) (A) (A) (A) (A) (A) (A) (A) (A)
                 (A) (A) (A) (A) (A) (A) (A) (A) (A) (A) (A) (A)
                 (A) (A) (A) (A) (A) (A) (A) (A) (A) (A) (A) (A)
                 (A) (A) (A) (A) (A) (A) (A) (A)
       Virtual   (A) (A) (A) (A) (A) (A) (A) (A) (A) (A) (A) (A)
                 (A) (A) (A) (A) (A) (A) (A) (A) (A) (A) (A) (A)
                 (A) (A) (A) (A) (A) (A) (A) (A) (A) (A) (A) (A)
                 (A) (A) (A) (A) (A) (A) (A) (A) (A) (A) (A) (A)
                 (A) (A) (A) (A) (A) (A) (A) (A) (A) (A) (A) (A)
                 (A) (A) (A) (A) (A) (A) (A) (A) (A) (A) (A) (A)
                 (A) (A) (A) (A) (A) (A) (A) (A) (A) (A) (A) (A)
                 (A) (A) (A) (A) (A) (A) (A) (A) (A) (A) (A) (A)
                 (A) (A) (A) (A) (A) (A) (A) (A) (A) (A) (A) (A)
                 (A) (A) (A) (A) (A) (A) (A) (A) (A) (A) (A) (A)
                 (A) (A) (A) (A) (A) (A) (A) (A) (A) (A) (A) (A)
                 (A) (A) (A) (A) (A) (A) (A) (A) (A) (A) (A) (A)
                 (A) (A) (A) (A) (A) (A) (A) (A) (A) (A) (A) (A)
                 (A) (A) (A) (A) (A) (A) (A) (A) (A) (A) (A) (A)
                 (A) (A) (A) (A) (A) (A) (A) (A) (A) (A) (A) (A)
                 (A) (A) (A) (A) (A) (A) (A) (A) (A) (A) (A) (A)
                 (A) (A) (A) (A) (A) (A) (A) (A) (A) (A) (A) (A)
                 (A) (A) (A) (A) (A) (A) (A) (A) (A) (A) (A) (A)
                 (A) (A) (A) (A) (A) (A) (A) (A) (A) (A) (A) (A)
                 (A) (A) (A) (A) (A) (A) (A) (A) (A) (A) (A) (A)
                 (A) (A) (A) (A) (A) (A) (A) (A) (A) (A) (A) (A)
                 (A) (A) (A) (A) (A) (A) (A) (A) (A) (A) (A) (A)
                 (A) (A) (A) (A) (A) (A) (A) (A) (A) (A) (A) (A)
                 (A) (A) (A) (A) (A) (A) (A) (A) (A) (A) (A) (A)
                 (A) (A) (A) (A) (A) (A) (A) (A) (A) (A) (A) (A)
                 (A) (A) (A) (A) (A) (A) (A) (A) (A) (A) (A) (A)
                 (A) (A) (A) (A) (A) (A) (A) (A) (A) (A) (A) (A)
                 (A) (A) (A) (A)
 The electronic state is 1-A.
 Alpha  occ. eigenvalues -- -399.09513-399.08684-399.08683 -49.91120 -49.90271
 Alpha  occ. eigenvalues --  -49.90270 -44.39193 -44.39168 -44.39152 -44.38353
 Alpha  occ. eigenvalues --  -44.38352 -44.38338 -44.38338 -44.38284 -44.38284
 Alpha  occ. eigenvalues --   -6.27627  -6.26773  -6.26772  -6.02691  -6.01855
 Alpha  occ. eigenvalues --   -6.01839  -6.01541  -5.13892  -5.13881  -4.43065
 Alpha  occ. eigenvalues --   -4.42966  -4.42914  -4.42232  -4.42230  -4.42169
 Alpha  occ. eigenvalues --   -4.42169  -4.41985  -4.41982  -3.74961  -3.74910
 Alpha  occ. eigenvalues --   -3.74620  -3.74191  -3.74172  -3.74010  -3.73990
 Alpha  occ. eigenvalues --   -3.73774  -3.73760  -3.73748  -3.73732  -3.73567
 Alpha  occ. eigenvalues --   -3.47175  -3.47164  -3.46939  -3.46928  -3.46910
 Alpha  occ. eigenvalues --   -3.46900  -1.22511  -1.22480  -1.22468  -1.22367
 Alpha  occ. eigenvalues --   -1.22342  -1.21735  -1.21715  -1.21706  -1.21687
 Alpha  occ. eigenvalues --   -1.21641  -1.21517  -1.21513  -1.21463  -1.21426
 Alpha  occ. eigenvalues --   -1.21335  -1.08893  -1.08883  -1.08493  -1.08353
 Alpha  occ. eigenvalues --   -1.08318  -1.08235  -1.07789  -1.07696  -1.07635
 Alpha  occ. eigenvalues --   -1.07493  -1.07463  -1.07441  -1.07437  -1.07421
 Alpha  occ. eigenvalues --   -1.07373  -1.07327  -1.07310  -1.07250  -1.07189
 Alpha  occ. eigenvalues --   -1.07151  -1.03339  -1.03323  -1.03263  -1.03247
 Alpha  occ. eigenvalues --   -1.03233  -1.03222  -1.03066  -1.03053  -1.03029
 Alpha  occ. eigenvalues --   -1.03008  -0.66996  -0.62086  -0.58735  -0.58391
 Alpha  occ. eigenvalues --   -0.48593  -0.47226  -0.46343  -0.40684  -0.40647
 Alpha  occ. eigenvalues --   -0.29522  -0.27394  -0.26420  -0.26102  -0.25000
 Alpha  occ. eigenvalues --   -0.24759  -0.23287  -0.22471  -0.22009  -0.20206
 Alpha  occ. eigenvalues --   -0.20114
 Alpha virt. eigenvalues --   -0.08162  -0.07573  -0.06955  -0.06857  -0.05963
 Alpha virt. eigenvalues --   -0.05480  -0.05293  -0.04789  -0.04336  -0.03159
 Alpha virt. eigenvalues --   -0.03095  -0.02955  -0.00536   0.03967   0.04767
 Alpha virt. eigenvalues --    0.05681   0.06338   0.07968   0.08501   0.08870
 Alpha virt. eigenvalues --    0.09109   0.09316   0.09884   0.10180   0.10217
 Alpha virt. eigenvalues --    0.10914   0.11682   0.11757   0.12267   0.12292
 Alpha virt. eigenvalues --    0.13801   0.15778   0.15784   0.16860   0.17046
 Alpha virt. eigenvalues --    0.17133   0.19310   0.19360   0.20089   0.20356
 Alpha virt. eigenvalues --    0.20752   0.21858   0.22508   0.22733   0.24387
 Alpha virt. eigenvalues --    0.24680   0.25700   0.27042   0.28324   0.29503
 Alpha virt. eigenvalues --    0.29827   0.30216   0.30861   0.30964   0.31237
 Alpha virt. eigenvalues --    0.31735   0.31946   0.32466   0.32857   0.33474
 Alpha virt. eigenvalues --    0.33823   0.34425   0.36191   0.36881   0.37581
 Alpha virt. eigenvalues --    0.38227   0.39189   0.40473   0.41299   0.41684
 Alpha virt. eigenvalues --    0.42653   0.42740   0.43187   0.43982   0.44891
 Alpha virt. eigenvalues --    0.46216   0.46523   0.46861   0.47178   0.47601
 Alpha virt. eigenvalues --    0.49373   0.49539   0.50599   0.51281   0.51605
 Alpha virt. eigenvalues --    0.52147   0.53085   0.53621   0.53886   0.55629
 Alpha virt. eigenvalues --    0.56502   0.56946   0.57123   0.59109   0.59566
 Alpha virt. eigenvalues --    0.59700   0.60605   0.61223   0.61830   0.62258
 Alpha virt. eigenvalues --    0.63345   0.64738   0.65116   0.65307   0.65535
 Alpha virt. eigenvalues --    0.65916   0.66466   0.68078   0.68136   0.69925
 Alpha virt. eigenvalues --    0.70867   0.71287   0.71897   0.73488   0.74313
 Alpha virt. eigenvalues --    0.74582   0.74930   0.77122   0.77684   0.78307
 Alpha virt. eigenvalues --    0.79512   0.79565   0.80593   0.81033   0.81993
 Alpha virt. eigenvalues --    0.83226   0.83298   0.84738   0.84780   0.86298
 Alpha virt. eigenvalues --    0.87405   0.87548   0.88349   0.88901   0.89243
 Alpha virt. eigenvalues --    0.89761   0.89804   0.92935   0.93052   0.93433
 Alpha virt. eigenvalues --    0.94205   0.94943   0.95255   0.95538   0.95826
 Alpha virt. eigenvalues --    0.98461   0.98584   0.98990   0.99719   1.00385
 Alpha virt. eigenvalues --    1.01334   1.02704   1.06974   1.08079   1.08450
 Alpha virt. eigenvalues --    1.09414   1.09837   1.11220   1.11740   1.11978
 Alpha virt. eigenvalues --    1.13473   1.13990   1.14891   1.16004   1.17467
 Alpha virt. eigenvalues --    1.17613   1.18581   1.19310   1.19921   1.20831
 Alpha virt. eigenvalues --    1.20934   1.21361   1.21468   1.22317   1.22327
 Alpha virt. eigenvalues --    1.23379   1.23471   1.24400   1.24790   1.24983
 Alpha virt. eigenvalues --    1.25309   1.25607   1.25641   1.26226   1.27322
 Alpha virt. eigenvalues --    1.27920   1.28370   1.28579   1.28801   1.29499
 Alpha virt. eigenvalues --    1.30031   1.30107   1.31363   1.32893   1.33362
 Alpha virt. eigenvalues --    1.34215   1.35087   1.37134   1.37442   1.40402
 Alpha virt. eigenvalues --    1.41702   1.42090   1.42472   1.42638   1.43439
 Alpha virt. eigenvalues --    1.44029   1.44696   1.44769   1.47302   1.48324
 Alpha virt. eigenvalues --    1.48785   1.49662   1.50182   1.51157   1.52340
 Alpha virt. eigenvalues --    1.53781   1.55957   1.57078   1.57525   1.58798
 Alpha virt. eigenvalues --    1.65038   1.67225   1.73665   1.99251   2.06575
 Alpha virt. eigenvalues --    2.09808   2.10645   2.14613   2.15346   2.17192
 Alpha virt. eigenvalues --    2.17697   2.18158   2.18240   2.19776   2.20357
 Alpha virt. eigenvalues --    2.21399   2.22381   2.22410   2.25510   2.27219
 Alpha virt. eigenvalues --    2.28089   2.28399   2.30315   2.30839   2.32597
 Alpha virt. eigenvalues --    2.32779   2.35182   2.35781   2.38307   2.39607
 Alpha virt. eigenvalues --    2.40952   2.41103   2.45054   2.46669   2.46904
 Alpha virt. eigenvalues --    2.47462   2.50695   2.50742   2.52680   2.54583
 Alpha virt. eigenvalues --    2.57078   2.59898   2.61082   2.63645   2.64643
 Alpha virt. eigenvalues --    2.67435   2.69552   2.70400   2.73497   2.76177
 Alpha virt. eigenvalues --    2.76441   2.77392   2.78856   2.79287   2.82615
 Alpha virt. eigenvalues --    2.84099   2.84819   2.87912   2.88668   2.96263
 Alpha virt. eigenvalues --    3.17227   3.25371   3.32173   3.38831   3.39238
 Alpha virt. eigenvalues --    3.42171   3.95728   3.98437   3.99266   4.00320
 Alpha virt. eigenvalues --    4.02587   4.05073   4.05133   4.06958   4.10351
 Alpha virt. eigenvalues --    5.24013   5.34601   5.38527  35.36854  35.40950
 Alpha virt. eigenvalues --   35.42928  35.44371  35.44794  35.45298  35.49159
 Alpha virt. eigenvalues --   35.51884  35.56332  35.58489  35.59503  35.60698
 Alpha virt. eigenvalues --   35.86864  35.95311  36.01619  36.01880  36.20429
 Alpha virt. eigenvalues --   36.22082  36.97015  36.97792  37.03871  37.04796
 Alpha virt. eigenvalues --   37.08916  37.14838 113.56951 113.58766 120.21732
 Alpha virt. eigenvalues --  120.24088 120.24804 120.25053
          Condensed to atoms (all electrons):
               1          2          3          4          5          6
     1  Sn  21.375323  -0.018269   0.065078  -0.019518   0.141877  -0.018752
     2  Sn  -0.018269  21.376298   0.067421   0.141290  -0.019419   0.125259
     3  Bi   0.065078   0.067421  22.284463   0.158419   0.158255  -0.018692
     4  Bi  -0.019518   0.141290   0.158419  22.385737   0.163485   0.184244
     5  Bi   0.141877  -0.019419   0.158255   0.163485  22.390220  -0.016186
     6  Ge  -0.018752   0.125259  -0.018692   0.184244  -0.016186  31.568463
     7  Ge   0.143949   0.142977   0.211550  -0.016675  -0.016713  -0.010618
     8  Bi   0.118304   0.117819  -0.032466  -0.022670  -0.022348   0.150535
     9  Ge   0.126331  -0.018816  -0.018878  -0.016103   0.183159   0.186829
               7          8          9
     1  Sn   0.143949   0.118304   0.126331
     2  Sn   0.142977   0.117819  -0.018816
     3  Bi   0.211550  -0.032466  -0.018878
     4  Bi  -0.016675  -0.022670  -0.016103
     5  Bi  -0.016713  -0.022348   0.183159
     6  Ge  -0.010618   0.150535   0.186829
     7  Ge  31.642679   0.150025  -0.010708
     8  Bi   0.150025  22.231118   0.149865
     9  Ge  -0.010708   0.149865  31.566022
 Mulliken charges:
               1
     1  Sn   0.085677
     2  Sn   0.085442
     3  Bi   0.124849
     4  Bi   0.041792
     5  Bi   0.037671
     6  Ge  -0.151081
     7  Ge  -0.236465
     8  Bi   0.159819
     9  Ge  -0.147702
 Sum of Mulliken charges =   0.00000
 Mulliken charges with hydrogens summed into heavy atoms:
               1
     1  Sn   0.085677
     2  Sn   0.085442
     3  Bi   0.124849
     4  Bi   0.041792
     5  Bi   0.037671
     6  Ge  -0.151081
     7  Ge  -0.236465
     8  Bi   0.159819
     9  Ge  -0.147702
 Electronic spatial extent (au):  <R**2>=           6070.1475
 Charge=              0.0000 electrons
 Dipole moment (field-independent basis, Debye):
    X=              1.2115    Y=             -0.0035    Z=              0.9835  Tot=              1.5604
 Quadrupole moment (field-independent basis, Debye-Ang):
   XX=           -214.0329   YY=           -218.3030   ZZ=           -222.4493
   XY=              0.0043   XZ=             -0.9760   YZ=              0.0152
 Traceless Quadrupole moment (field-independent basis, Debye-Ang):
   XX=              4.2288   YY=             -0.0413   ZZ=             -4.1876
   XY=              0.0043   XZ=             -0.9760   YZ=              0.0152
 Octapole moment (field-independent basis, Debye-Ang**2):
  XXX=             83.1811  YYY=             -0.2197  ZZZ=             18.6688  XYY=             36.6909
  XXY=              0.0091  XXZ=             -2.2070  XZZ=             47.3621  YZZ=             -0.1374
  YYZ=              6.9359  XYZ=              0.0726
 Hexadecapole moment (field-independent basis, Debye-Ang**3):
 XXXX=          -3403.2451 YYYY=          -3263.0672 ZZZZ=          -2909.4025 XXXY=             -0.3797
 XXXZ=             24.9567 YYYX=             -0.4639 YYYZ=             -0.0233 ZZZX=             44.2728
 ZZZY=              0.0136 XXYY=          -1107.8062 XXZZ=          -1056.7647 YYZZ=          -1043.1050
 XXYZ=             -0.1769 YYXZ=            -21.3853 ZZXY=             -0.2197
 N-N= 3.523571477510D+03 E-N=-2.463871197001D+04  KE= 6.661984289792D+03
 No NMR shielding tensors so no spin-rotation constants.
 Leave Link  601 at Tue Mar  6 14:41:50 2018, MaxMem=   536870912 cpu:         1.1
 (Enter /share/apps//mg09/l701.exe)
 Compute integral first derivatives.
 ... and contract with generalized density number  0.
   1 Symmetry operations used in ECPInt.
 ECPInt:  NShTT=   10440 NPrTT=   41973 LenC2=    9656 LenP2D=   27454.
 LDataN:  DoStor=T MaxTD1= 9 Len=  602
 Leave Link  701 at Tue Mar  6 14:42:06 2018, MaxMem=   536870912 cpu:        65.8
 (Enter /share/apps//mg09/l702.exe)
 L702 exits ... SP integral derivatives will be done elsewhere.
 Leave Link  702 at Tue Mar  6 14:42:06 2018, MaxMem=   536870912 cpu:         0.1
 (Enter /share/apps//mg09/l703.exe)
 Compute integral first derivatives, UseDBF=F ICtDFT=           0.
 Integral derivatives from FoFJK, PRISM(SPDF).
 Calling FoFJK, ICntrl=      2127 FMM=F ISym2X=0 I1Cent= 0 IOpClX= 0 NMat=1 NMatS=1 NMatT=0.
 FoFJK:  IHMeth= 1 ICntrl=    2127 DoSepK=F KAlg= 0 I1Cent=   0 FoldK=F
 IRaf=         0 NMat=   1 IRICut=       1 DoRegI=T DoRafI=F ISym2E= 0.
 FoFCou: FMM=F IPFlag=           0 FMFlag=      100000 FMFlg1=         800
         NFxFlg=           0 DoJE=F BraDBF=F KetDBF=F FulRan=T
         wScrn=  0.000000 ICntrl=    2127 IOpCl=  0 I1Cent=           0 NGrid=           0
         NMat0=    1 NMatS0=      1 NMatT0=    0 NMatD0=    1 NMtDS0=    0 NMtDT0=    0
 Symmetry not used in FoFCou.
 Defaulting to unpruned grid for atomic number  50.
 Defaulting to unpruned grid for atomic number  50.
 Defaulting to unpruned grid for atomic number  50.
 Defaulting to unpruned grid for atomic number  50.
 Leave Link  703 at Tue Mar  6 14:44:56 2018, MaxMem=   536870912 cpu:       680.4
 (Enter /share/apps//mg09/l716.exe)
 Dipole        = 4.76631918D-01-1.39274798D-03 3.86921762D-01
 ***** Axes restored to original set *****
 -------------------------------------------------------------------
 Center     Atomic                   Forces (Hartrees/Bohr)
 Number     Number              X              Y              Z
 -------------------------------------------------------------------
      1       50           0.000978785   -0.012090729   -0.003948171
      2       50           0.001007621    0.012070363   -0.003977207
      3       83          -0.008028384    0.000038958   -0.004895224
      4       83          -0.007525963    0.003908921    0.000538018
      5       83          -0.007556235   -0.003941737    0.000562492
      6       32           0.001334675    0.008495710    0.011361599
      7       32           0.006691403   -0.000132950   -0.011827346
      8       83           0.012032455    0.000018838    0.000965550
      9       32           0.001065643   -0.008367374    0.011220290
 -------------------------------------------------------------------
 Cartesian Forces:  Max     0.012090729 RMS     0.006910318
 Force constants in Cartesian coordinates: 
                1             2             3             4             5 
      1  0.127283D+00
      2 -0.133496D-01  0.200940D+00
      3 -0.159314D-01  0.231580D-01  0.137467D+00
      4  0.696688D-02 -0.197392D-02  0.123382D-02  0.127245D+00
      5  0.188707D-02 -0.932601D-02 -0.313899D-02  0.138557D-01  0.200520D+00
      6  0.123763D-02  0.321880D-02  0.679231D-02 -0.159313D-01 -0.232913D-01
      7 -0.226291D-01  0.184454D-03 -0.148645D-01 -0.231136D-01 -0.343533D-03
      8  0.218050D-01 -0.308403D-01  0.127246D-01 -0.221100D-01 -0.310273D-01
      9 -0.412947D-02 -0.125255D-01 -0.228358D-01 -0.397831D-02  0.125944D-01
     10  0.167868D-02  0.836496D-02  0.315003D-02 -0.448571D-01  0.859296D-02
     11  0.585478D-03 -0.174505D-02 -0.417959D-02 -0.261725D-01 -0.328334D-01
     12 -0.989262D-03 -0.212898D-02  0.400810D-02  0.223435D-01 -0.355733D-02
     13 -0.450770D-01 -0.857574D-02  0.140123D-01  0.161640D-02 -0.836410D-02
     14  0.263955D-01 -0.330013D-01 -0.127159D-01 -0.601218D-03 -0.167405D-02
     15  0.222147D-01  0.343387D-02 -0.242772D-01 -0.971459D-03  0.217642D-02
     16  0.518958D-02 -0.181049D-02 -0.300181D-02 -0.141363D-01 -0.245598D-02
     17  0.405440D-02 -0.166700D-02 -0.306519D-02 -0.616495D-03 -0.342696D-01
     18  0.151443D-02 -0.897408D-02  0.208313D-02 -0.240918D-02 -0.117706D-01
     19 -0.215087D-01  0.633696D-02  0.844181D-02 -0.213281D-01 -0.641969D-02
     20 -0.142675D-01 -0.484822D-01  0.287105D-01  0.141959D-01 -0.485236D-01
     21  0.103184D-01 -0.993902D-02 -0.346934D-01  0.102548D-01  0.998825D-02
     22 -0.376977D-01  0.853801D-02  0.304293D-03 -0.375450D-01 -0.854473D-02
     23 -0.276450D-01 -0.413365D-01 -0.137181D-01  0.275120D-01 -0.412411D-01
     24 -0.120776D-01 -0.787186D-02 -0.198343D-01 -0.121864D-01  0.802516D-02
     25 -0.142057D-01  0.228536D-02  0.665547D-02  0.515205D-02  0.179226D-02
     26  0.534712D-03 -0.345416D-01 -0.277755D-01 -0.408955D-02 -0.162450D-02
     27 -0.215741D-02  0.116288D-01 -0.487099D-01  0.164454D-02  0.897393D-02
                6             7             8             9            10 
      6  0.137648D+00
      7 -0.150354D-01  0.188849D+00
      8 -0.127460D-01 -0.123818D-03  0.118943D+00
      9 -0.230836D-01  0.261213D-01  0.248999D-04  0.187955D+00
     10  0.141571D-01 -0.289137D-01 -0.242222D-02 -0.140079D-01  0.164125D+00
     11  0.127776D-01  0.118622D-01 -0.243893D-01 -0.814275D-02 -0.203342D-01
     12 -0.244413D-01  0.167593D-01 -0.256819D-01 -0.497722D-01 -0.764487D-02
     13  0.317281D-02 -0.289637D-01  0.241833D-02 -0.139391D-01 -0.270776D-01
     14  0.416742D-02 -0.119067D-01 -0.244600D-01  0.817710D-02 -0.154306D-01
     15  0.405186D-02  0.169563D-01  0.256279D-01 -0.496919D-01  0.274926D-02
     16  0.665354D-02  0.366981D-02  0.109355D-02 -0.326761D-02 -0.604897D-01
     17  0.275918D-01 -0.360836D-02  0.332397D-02 -0.631842D-02  0.122529D-01
     18 -0.485519D-01 -0.562407D-02  0.166123D-02 -0.356883D-02 -0.565956D-02
     19  0.830226D-02 -0.860929D-01  0.421157D-03  0.280011D-01  0.884192D-03
     20 -0.285835D-01  0.302327D-03 -0.218098D-01 -0.176923D-03  0.347222D-02
     21 -0.344814D-01 -0.156819D-01  0.623947D-04 -0.367308D-01  0.792675D-02
     22  0.413314D-03 -0.647246D-02  0.120791D-04 -0.115969D-01 -0.545733D-02
     23  0.137799D-01  0.301645D-04  0.692980D-02  0.381444D-04 -0.137128D-02
     24 -0.199316D-01 -0.302635D-02  0.400928D-05  0.135984D-02 -0.623287D-03
     25 -0.297005D-02  0.366704D-02 -0.109406D-02 -0.320313D-02  0.107498D-03
     26  0.308519D-02  0.360329D-02  0.332959D-02  0.632912D-02  0.687522D-02
     27  0.199784D-02 -0.560459D-02 -0.167724D-02 -0.363191D-02 -0.475861D-04
               11            12            13            14            15 
     11  0.131142D+00
     12  0.168648D-01  0.114670D+00
     13  0.151765D-01  0.285589D-02  0.164329D+00
     14 -0.553499D-01  0.898517D-02  0.204887D-01  0.130978D+00
     15 -0.915847D-02 -0.148354D-01 -0.766299D-02 -0.165727D-01  0.114426D+00
     16 -0.245129D-02 -0.385787D-01  0.769158D-04 -0.764472D-02 -0.289076D-03
     17 -0.246452D-01  0.344013D-03 -0.689250D-02  0.241326D-04 -0.411148D-02
     18 -0.976096D-02 -0.366317D-01 -0.492239D-04 -0.428332D-02  0.286153D-03
     19  0.563242D-02  0.319820D-02  0.813842D-03 -0.560514D-02  0.324469D-02
     20  0.491251D-02  0.150568D-02 -0.345861D-02  0.500055D-02 -0.152391D-02
     21 -0.261139D-02  0.504848D-03  0.792543D-02  0.249725D-02  0.514087D-03
     22  0.804138D-02  0.239029D-02 -0.547273D-02 -0.798151D-02  0.239998D-02
     23  0.302757D-02 -0.459911D-03  0.140321D-02  0.307242D-02  0.479670D-03
     24 -0.546714D-04  0.625576D-02 -0.669441D-03  0.616809D-04  0.627154D-02
     25  0.766004D-02 -0.334293D-03 -0.602446D-01  0.228565D-02 -0.386414D-01
     26 -0.119704D-03  0.412841D-02 -0.121958D-01 -0.245897D-01 -0.351366D-03
     27  0.426536D-02  0.242191D-03 -0.564563D-02  0.968323D-02 -0.367448D-01
               16            17            18            19            20 
     16  0.133445D+00
     17 -0.118475D-01  0.138872D+00
     18  0.102803D-01  0.305924D-01  0.169974D+00
     19  0.545451D-02 -0.499906D-03  0.563783D-02  0.157170D+00
     20 -0.313087D-02  0.557250D-02 -0.195506D-02 -0.348145D-03  0.117204D+00
     21 -0.175996D-03 -0.608986D-02 -0.419942D-02 -0.252357D-01  0.251206D-03
     22 -0.531938D-01  0.656501D-02  0.164067D-04 -0.408396D-01  0.113643D-03
     23  0.292918D-01 -0.307599D-01 -0.156797D-01 -0.238156D-04 -0.194812D-01
     24  0.322999D-01 -0.188737D-01 -0.461136D-01 -0.372592D-01 -0.894540D-04
     25 -0.200157D-01  0.592470D-03 -0.370692D-02  0.544709D-02  0.312100D-02
     26 -0.104447D-02 -0.564513D-01  0.201701D-01  0.506167D-03  0.560759D-02
     27 -0.392058D-02 -0.200696D-01 -0.332774D-01  0.566905D-02  0.186145D-02
               21            22            23            24            25 
     21  0.184580D+00
     22  0.482688D-02  0.240072D+00
     23 -0.204830D-03 -0.260840D-03  0.150014D+00
     24 -0.712378D-01  0.109589D-02  0.317928D-03  0.189347D+00
     25 -0.158588D-03 -0.533939D-01 -0.289362D-01  0.324465D-01  0.133486D+00
     26  0.604600D-02 -0.648303D-02 -0.302250D-01  0.184809D-01  0.122935D-01
     27 -0.425631D-02  0.149803D-03  0.154469D-01 -0.461172D-01  0.991239D-02
               26            27 
     26  0.138615D+00
     27 -0.301128D-01  0.170498D+00
 Leave Link  716 at Tue Mar  6 14:44:56 2018, MaxMem=   536870912 cpu:         0.1
 (Enter /share/apps//mg09/l103.exe)

 GradGradGradGradGradGradGradGradGradGradGradGradGradGradGradGradGradGrad
 Berny optimization.
 Search for a local minimum.
 Step number   1 out of a maximum of  100
 All quantities printed in internal units (Hartrees-Bohrs-Radians)
 Second derivative matrix not updated -- first step.
 ITU=  0
     Eigenvalues ---    0.08567   0.11790   0.12053   0.12753   0.13328
     Eigenvalues ---    0.14525   0.14540   0.14771   0.15627   0.16406
     Eigenvalues ---    0.17245   0.22086   0.22724   0.23730   0.24249
     Eigenvalues ---    0.24936   0.26816   0.28247   0.28482   0.30647
     Eigenvalues ---    0.32035
 RFO step:  Lambda=-7.78833185D-03 EMin= 8.56727974D-02
 Linear search not attempted -- first point.
 TrRot=  0.001109  0.000000  0.001276  0.000002  0.000003  0.000002
 Variable       Old X    -DE/DX   Delta X   Delta X   Delta X     New X
                                 (Linear)    (Quad)   (Total)
    X1       -1.56216   0.00098   0.00000   0.00549   0.00659  -1.55558
    Y1        4.51895  -0.01209   0.00000  -0.07523  -0.07524   4.44371
    Z1        1.26151  -0.00395   0.00000  -0.02518  -0.02390   1.23761
    X2       -1.58227   0.00101   0.00000   0.00560   0.00673  -1.57554
    Y2       -4.50288   0.01207   0.00000   0.07514   0.07514  -4.42774
    Z2        1.28737  -0.00398   0.00000  -0.02548  -0.02420   1.26317
    X3        2.32512  -0.00803   0.00000  -0.04072  -0.03960   2.28552
    Y3       -0.00867   0.00004   0.00000   0.00013   0.00014  -0.00853
    Z3        3.56051  -0.00490   0.00000  -0.04363  -0.04236   3.51815
    X4        3.32538  -0.00753   0.00000  -0.04677  -0.04565   3.27973
    Y4       -2.89200   0.00391   0.00000   0.03740   0.03741  -2.85459
    Z4       -1.39239   0.00054   0.00000   0.00753   0.00880  -1.38359
    X5        3.34978  -0.00756   0.00000  -0.04721  -0.04612   3.30366
    Y5        2.87756  -0.00394   0.00000  -0.03751  -0.03750   2.84006
    Z5       -1.38589   0.00056   0.00000   0.00730   0.00857  -1.37733
    X6       -1.40782   0.00133   0.00000   0.01206   0.01317  -1.39465
    Y6       -2.65004   0.00850   0.00000   0.05514   0.05514  -2.59491
    Z6       -4.11895   0.01136   0.00000   0.06560   0.06688  -4.05207
    X7       -2.98012   0.00669   0.00000   0.03418   0.03530  -2.94483
    Y7        0.02279  -0.00013   0.00000  -0.00073  -0.00074   0.02205
    Z7        4.33733  -0.01183   0.00000  -0.07279  -0.07151   4.26582
    X8       -4.88275   0.01203   0.00000   0.05669   0.05780  -4.82495
    Y8        0.01101   0.00002   0.00000   0.00019   0.00018   0.01119
    Z8       -0.81180   0.00097   0.00000   0.01015   0.01144  -0.80036
    X9       -1.37871   0.00107   0.00000   0.01069   0.01178  -1.36693
    Y9        2.63352  -0.00837   0.00000  -0.05452  -0.05452   2.57899
    Z9       -4.12428   0.01122   0.00000   0.06500   0.06628  -4.05800
         Item               Value     Threshold  Converged?
 Maximum Force            0.012091     0.000450     NO 
 RMS     Force            0.006910     0.000300     NO 
 Maximum Displacement     0.075239     0.001800     NO 
 RMS     Displacement     0.042210     0.001200     NO 
 Predicted change in Energy=-4.081598D-03
 Lowest energy point so far.  Saving SCF results.
 GradGradGradGradGradGradGradGradGradGradGradGradGradGradGradGradGradGrad

 Leave Link  103 at Tue Mar  6 14:44:57 2018, MaxMem=   536870912 cpu:         0.1
 (Enter /share/apps//mg09/l202.exe)
                          Input orientation:                          
 ---------------------------------------------------------------------
 Center     Atomic      Atomic             Coordinates (Angstroms)
 Number     Number       Type             X           Y           Z
 ---------------------------------------------------------------------
      1         50           0       -0.823176    2.351510    0.654915
      2         50           0       -0.833737   -2.343059    0.668439
      3         83           0        1.209446   -0.004516    1.861725
      4         83           0        1.735557   -1.510582   -0.732164
      5         83           0        1.748222    1.502897   -0.728851
      6         32           0       -0.738015   -1.373165   -2.144261
      7         32           0       -1.558336    0.011667    2.257373
      8         83           0       -2.553254    0.005921   -0.423532
      9         32           0       -0.723348    1.364744   -2.147400
 ---------------------------------------------------------------------
                    Distance matrix (angstroms):
                    1          2          3          4          5
     1  Sn   0.000000
     2  Sn   4.694601   0.000000
     3  Bi   3.337484   3.326757   0.000000
     4  Bi   4.835996   3.042364   3.045208   0.000000
     5  Bi   3.040895   4.838421   3.045268   3.013508   0.000000
     6  Ge   4.660026   2.976767   4.659799   2.851571   4.056660
     7  Ge   2.929710   2.931636   2.795964   4.701522   4.698365
     8  Bi   3.107733   3.109155   4.402319   4.559488   4.564740
     9  Ge   2.972650   4.657139   4.656571   4.039382   2.853074
                    6          7          8          9
     6  Ge   0.000000
     7  Ge   4.686691   0.000000
     8  Bi   2.856200   2.859571   0.000000
     9  Ge   2.737950   4.682954   2.857740   0.000000
 Stoichiometry    Bi4Ge3Sn2
 Framework group  C1[X(Bi4Ge3Sn2)]
 Deg. of freedom    21
 Full point group                 C1      NOp   1
 RotChk:  IX=0 Diff= 5.12D-03
 Largest Abelian subgroup         C1      NOp   1
 Largest concise Abelian subgroup C1      NOp   1
                         Standard orientation:                         
 ---------------------------------------------------------------------
 Center     Atomic      Atomic             Coordinates (Angstroms)
 Number     Number       Type             X           Y           Z
 ---------------------------------------------------------------------
      1         50           0       -0.822700    2.351047    0.654287
      2         50           0       -0.831929   -2.343529    0.666257
      3         83           0        1.206268   -0.004774    1.867627
      4         83           0        1.742133   -1.509846   -0.724842
      5         83           0        1.753901    1.503636   -0.720510
      6         32           0       -0.726392   -1.372695   -2.145768
      7         32           0       -1.562922    0.010470    2.253339
      8         83           0       -2.548204    0.005301   -0.431123
      9         32           0       -0.712519    1.365218   -2.147971
 ---------------------------------------------------------------------
 Rotational constants (GHZ):      0.1082020      0.0918629      0.0859321
 Leave Link  202 at Tue Mar  6 14:44:58 2018, MaxMem=   536870912 cpu:         0.0
 (Enter /share/apps//mg09/l301.exe)
 Standard basis: def2TZVP (5D, 7F)
 Ernie: Thresh=  0.10000D-02 Tol=  0.10000D-05 Strict=F.
 There are   519 symmetry adapted cartesian basis functions of A   symmetry.
 There are   444 symmetry adapted basis functions of A   symmetry.
   444 basis functions,   963 primitive gaussians,   519 cartesian basis functions
   116 alpha electrons      116 beta electrons
       nuclear repulsion energy      3577.9028874419 Hartrees.
 IExCor= 1009 DFT=T Ex+Corr=PBE1PBE ExCW=0 ScaHFX=  0.250000
 ScaDFX=  0.750000  0.750000  1.000000  1.000000 ScalE2=  1.000000  1.000000
 IRadAn=      0 IRanWt=     -1 IRanGd=            0 ICorTp=0 IEmpDi=  4
 NAtoms=    9 NActive=    9 NUniq=    9 SFac= 1.00D+00 NAtFMM=   60 NAOKFM=F Big=F
 Integral buffers will be    131072 words long.
 Raffenetti 2 integral format.
 Two-electron integral symmetry is turned on.
 Leave Link  301 at Tue Mar  6 14:44:58 2018, MaxMem=   536870912 cpu:         0.2
 (Enter /share/apps//mg09/l302.exe)
 NPDir=0 NMtPBC=     1 NCelOv=     1 NCel=       1 NClECP=     1 NCelD=      1
         NCelK=      1 NCelE2=     1 NClLst=     1 CellRange=     0.0.
 One-electron integrals computed using PRISM.
   1 Symmetry operations used in ECPInt.
 ECPInt:  NShTT=   10440 NPrTT=   41973 LenC2=    9686 LenP2D=   27645.
 LDataN:  DoStor=T MaxTD1= 8 Len=  415
 NBasis=   444 RedAO= T EigKep=  1.42D-03  NBF=   444
 NBsUse=   444 1.00D-06 EigRej= -1.00D+00 NBFU=   444
 Precomputing XC quadrature grid using
 IXCGrd= 4 IRadAn=           0 IRanWt=          -1 IRanGd=           0 AccXCQ= 0.00D+00.
 Defaulting to unpruned grid for atomic number  50.
 Defaulting to unpruned grid for atomic number  83.
 Defaulting to unpruned grid for atomic number  83.
 Generated NRdTot=       0 NPtTot=           0 NUsed=           0 NTot=          32
 NSgBfM=   507   507   507   507   507 MxSgAt=     9 MxSgA2=     9.
 Leave Link  302 at Tue Mar  6 14:45:04 2018, MaxMem=   536870912 cpu:        25.8
 (Enter /share/apps//mg09/l303.exe)
 DipDrv:  MaxL=1.
 Leave Link  303 at Tue Mar  6 14:45:04 2018, MaxMem=   536870912 cpu:         0.3
 (Enter /share/apps//mg09/l401.exe)
 Initial guess from the checkpoint file:  "Isomer_36.chk"
 B after Tr=     0.000000    0.000000    0.000000
         Rot=    0.999998   -0.000158    0.001748   -0.000140 Ang=  -0.20 deg.
 Guess basis will be translated and rotated to current coordinates.
 JPrj=2 DoOrth=T DoCkMO=T.
 Generating alternative initial guess.
 ExpMin= 4.62D-02 ExpMax= 4.66D+05 ExpMxC= 4.50D+03 IAcc=2 IRadAn=         4 AccDes= 0.00D+00
 Harris functional with IExCor= 1009 and IRadAn=       4 diagonalized for initial guess.
 HarFok:  IExCor= 1009 AccDes= 0.00D+00 IRadAn=         4 IDoV= 1 UseB2=F ITyADJ=14
 ICtDFT=  3500011 ScaDFX=  1.000000  1.000000  1.000000  1.000000
 Defaulting to unpruned grid for atomic number  50.
 Defaulting to unpruned grid for atomic number  50.
 Defaulting to unpruned grid for atomic number  50.
 Defaulting to unpruned grid for atomic number  50.
 FoFCou: FMM=F IPFlag=           0 FMFlag=      100000 FMFlg1=           0
         NFxFlg=           0 DoJE=T BraDBF=F KetDBF=T FulRan=T
         wScrn=  0.000000 ICntrl=     500 IOpCl=  0 I1Cent=   200000004 NGrid=           0
         NMat0=    1 NMatS0=      1 NMatT0=    0 NMatD0=    1 NMtDS0=    0 NMtDT0=    0
 Petite list used in FoFCou.
 Harris En= -7518.61359908798    
 Leave Link  401 at Tue Mar  6 14:45:07 2018, MaxMem=   536870912 cpu:        11.8
 (Enter /share/apps//mg09/l502.exe)
 Closed shell SCF:
 Using DIIS extrapolation, IDIIS=  1040.
 Integral symmetry usage will be decided dynamically.
 IVT=     1410107 IEndB=     1410107 NGot=   536870912 MDV=   536322046
 LenX=   536322046 LenY=   536052166
 Requested convergence on RMS density matrix=1.00D-08 within 768 cycles.
 Requested convergence on MAX density matrix=1.00D-06.
 Requested convergence on             energy=1.00D-06.
 No special actions if energy rises.
 Fock matrices will be formed incrementally for  20 cycles.

 Cycle   1  Pass 1  IDiag  1:
 FoFJK:  IHMeth= 1 ICntrl=       0 DoSepK=F KAlg= 0 I1Cent=   0 FoldK=F
 IRaf= 880000000 NMat=   1 IRICut=       1 DoRegI=T DoRafI=F ISym2E= 0.
 FoFCou: FMM=F IPFlag=           0 FMFlag=      100000 FMFlg1=           0
         NFxFlg=           0 DoJE=F BraDBF=F KetDBF=F FulRan=T
         wScrn=  0.000000 ICntrl=       0 IOpCl=  0 I1Cent=           0 NGrid=           0
         NMat0=    1 NMatS0=      1 NMatT0=    0 NMatD0=    1 NMtDS0=    0 NMtDT0=    0
 Symmetry not used in FoFCou.
 Defaulting to unpruned grid for atomic number  50.
 Defaulting to unpruned grid for atomic number  50.
 Defaulting to unpruned grid for atomic number  50.
 Defaulting to unpruned grid for atomic number  50.
 E= -7517.81454145202    
 DIIS: error= 5.70D-03 at cycle   1 NSaved=   1.
 NSaved= 1 IEnMin= 1 EnMin= -7517.81454145202     IErMin= 1 ErrMin= 5.70D-03
 ErrMax= 5.70D-03  0.00D+00 EMaxC= 1.00D-01 BMatC= 8.31D-03 BMatP= 8.31D-03
 IDIUse=3 WtCom= 9.43D-01 WtEn= 5.70D-02
 Coeff-Com:  0.100D+01
 Coeff-En:   0.100D+01
 Coeff:      0.100D+01
 Gap=     8.190 Goal=   None    Shift=    0.000
 GapD=    8.190 DampG=2.000 DampE=1.000 DampFc=2.0000 IDamp=-1.
 RMSDP=1.70D-04 MaxDP=3.85D-03              OVMax= 1.65D-02

 Cycle   2  Pass 1  IDiag  1:
 RMSU=  1.70D-04    CP:  1.00D+00
 E= -7517.81460800581     Delta-E=       -0.000066553788 Rises=F Damp=F
 DIIS: error= 1.62D-03 at cycle   2 NSaved=   2.
 NSaved= 2 IEnMin= 2 EnMin= -7517.81460800581     IErMin= 2 ErrMin= 1.62D-03
 ErrMax= 1.62D-03  0.00D+00 EMaxC= 1.00D-01 BMatC= 1.47D-03 BMatP= 8.31D-03
 IDIUse=3 WtCom= 9.84D-01 WtEn= 1.62D-02
 Coeff-Com:  0.188D+00 0.812D+00
 Coeff-En:   0.479D+00 0.521D+00
 Coeff:      0.193D+00 0.807D+00
 Gap=     0.122 Goal=   None    Shift=    0.000
 RMSDP=1.95D-04 MaxDP=7.35D-03 DE=-6.66D-05 OVMax= 1.34D-02

 Cycle   3  Pass 1  IDiag  1:
 RMSU=  1.76D-04    CP:  9.99D-01  5.36D-01
 E= -7517.81309190096     Delta-E=        0.001516104852 Rises=F Damp=F
 DIIS: error= 2.35D-03 at cycle   3 NSaved=   3.
 NSaved= 3 IEnMin= 2 EnMin= -7517.81460800581     IErMin= 2 ErrMin= 1.62D-03
 ErrMax= 2.35D-03  0.00D+00 EMaxC= 1.00D-01 BMatC= 3.34D-03 BMatP= 1.47D-03
 IDIUse=3 WtCom= 1.71D-01 WtEn= 8.29D-01
 Coeff-Com:  0.405D-02 0.601D+00 0.395D+00
 Coeff-En:   0.000D+00 0.655D+00 0.345D+00
 Coeff:      0.694D-03 0.646D+00 0.353D+00
 Gap=     0.124 Goal=   None    Shift=    0.000
 RMSDP=1.04D-04 MaxDP=5.03D-03 DE= 1.52D-03 OVMax= 8.78D-03

 Cycle   4  Pass 1  IDiag  1:
 RMSU=  3.09D-05    CP:  9.99D-01  8.00D-01  5.04D-01
 E= -7517.81564267928     Delta-E=       -0.002550778319 Rises=F Damp=F
 DIIS: error= 4.18D-04 at cycle   4 NSaved=   4.
 NSaved= 4 IEnMin= 4 EnMin= -7517.81564267928     IErMin= 4 ErrMin= 4.18D-04
 ErrMax= 4.18D-04  0.00D+00 EMaxC= 1.00D-01 BMatC= 1.20D-04 BMatP= 1.47D-03
 IDIUse=3 WtCom= 9.96D-01 WtEn= 4.18D-03
 Coeff-Com: -0.288D-03 0.405D+00 0.214D+00 0.381D+00
 Coeff-En:   0.000D+00 0.351D-01 0.000D+00 0.965D+00
 Coeff:     -0.287D-03 0.403D+00 0.213D+00 0.384D+00
 Gap=     0.123 Goal=   None    Shift=    0.000
 RMSDP=3.08D-05 MaxDP=1.14D-03 DE=-2.55D-03 OVMax= 2.74D-03

 Cycle   5  Pass 1  IDiag  1:
 RMSU=  1.41D-05    CP:  9.99D-01  8.54D-01  4.56D-01  2.15D-01
 E= -7517.81572553854     Delta-E=       -0.000082859257 Rises=F Damp=F
 DIIS: error= 1.26D-04 at cycle   5 NSaved=   5.
 NSaved= 5 IEnMin= 5 EnMin= -7517.81572553854     IErMin= 5 ErrMin= 1.26D-04
 ErrMax= 1.26D-04  0.00D+00 EMaxC= 1.00D-01 BMatC= 1.45D-05 BMatP= 1.20D-04
 IDIUse=3 WtCom= 9.99D-01 WtEn= 1.26D-03
 Coeff-Com: -0.862D-03 0.210D+00 0.966D-01 0.307D+00 0.386D+00
 Coeff-En:   0.000D+00 0.000D+00 0.000D+00 0.171D+00 0.829D+00
 Coeff:     -0.860D-03 0.210D+00 0.964D-01 0.307D+00 0.387D+00
 Gap=     0.123 Goal=   None    Shift=    0.000
 RMSDP=1.09D-05 MaxDP=6.08D-04 DE=-8.29D-05 OVMax= 1.16D-03

 Cycle   6  Pass 1  IDiag  1:
 RMSU=  3.28D-06    CP:  9.99D-01  8.61D-01  4.47D-01  4.63D-01  5.30D-01
 E= -7517.81574393856     Delta-E=       -0.000018400020 Rises=F Damp=F
 DIIS: error= 9.71D-06 at cycle   6 NSaved=   6.
 NSaved= 6 IEnMin= 6 EnMin= -7517.81574393856     IErMin= 6 ErrMin= 9.71D-06
 ErrMax= 9.71D-06  0.00D+00 EMaxC= 1.00D-01 BMatC= 1.89D-07 BMatP= 1.45D-05
 IDIUse=1 WtCom= 1.00D+00 WtEn= 0.00D+00
 Coeff-Com: -0.288D-03 0.433D-01 0.191D-01 0.814D-01 0.150D+00 0.707D+00
 Coeff:     -0.288D-03 0.433D-01 0.191D-01 0.814D-01 0.150D+00 0.707D+00
 Gap=     0.123 Goal=   None    Shift=    0.000
 RMSDP=1.88D-06 MaxDP=1.01D-04 DE=-1.84D-05 OVMax= 2.23D-04

 Cycle   7  Pass 1  IDiag  1:
 RMSU=  1.41D-06    CP:  9.99D-01  8.65D-01  4.50D-01  4.62D-01  5.97D-01
                    CP:  9.63D-01
 E= -7517.81574407644     Delta-E=       -0.000000137887 Rises=F Damp=F
 DIIS: error= 7.12D-06 at cycle   7 NSaved=   7.
 NSaved= 7 IEnMin= 7 EnMin= -7517.81574407644     IErMin= 7 ErrMin= 7.12D-06
 ErrMax= 7.12D-06  0.00D+00 EMaxC= 1.00D-01 BMatC= 8.55D-08 BMatP= 1.89D-07
 IDIUse=1 WtCom= 1.00D+00 WtEn= 0.00D+00
 Coeff-Com: -0.343D-04-0.989D-02-0.426D-02-0.151D-02 0.292D-01 0.453D+00
 Coeff-Com:  0.533D+00
 Coeff:     -0.343D-04-0.989D-02-0.426D-02-0.151D-02 0.292D-01 0.453D+00
 Coeff:      0.533D+00
 Gap=     0.123 Goal=   None    Shift=    0.000
 RMSDP=9.81D-07 MaxDP=4.43D-05 DE=-1.38D-07 OVMax= 1.23D-04

 Cycle   8  Pass 1  IDiag  1:
 RMSU=  5.22D-07    CP:  9.99D-01  8.66D-01  4.52D-01  4.63D-01  6.11D-01
                    CP:  1.12D+00  6.45D-01
 E= -7517.81574414246     Delta-E=       -0.000000066015 Rises=F Damp=F
 DIIS: error= 4.42D-06 at cycle   8 NSaved=   8.
 NSaved= 8 IEnMin= 8 EnMin= -7517.81574414246     IErMin= 8 ErrMin= 4.42D-06
 ErrMax= 4.42D-06  0.00D+00 EMaxC= 1.00D-01 BMatC= 2.00D-08 BMatP= 8.55D-08
 IDIUse=1 WtCom= 1.00D+00 WtEn= 0.00D+00
 Coeff-Com:  0.128D-04-0.129D-01-0.540D-02-0.114D-01 0.683D-03 0.244D+00
 Coeff-Com:  0.385D+00 0.400D+00
 Coeff:      0.128D-04-0.129D-01-0.540D-02-0.114D-01 0.683D-03 0.244D+00
 Coeff:      0.385D+00 0.400D+00
 Gap=     0.123 Goal=   None    Shift=    0.000
 RMSDP=5.17D-07 MaxDP=2.14D-05 DE=-6.60D-08 OVMax= 7.35D-05

 Cycle   9  Pass 1  IDiag  1:
 RMSU=  3.18D-07    CP:  9.99D-01  8.66D-01  4.52D-01  4.65D-01  6.16D-01
                    CP:  1.13D+00  7.08D-01  2.87D-01
 E= -7517.81574415597     Delta-E=       -0.000000013511 Rises=F Damp=F
 DIIS: error= 2.89D-06 at cycle   9 NSaved=   9.
 NSaved= 9 IEnMin= 9 EnMin= -7517.81574415597     IErMin= 9 ErrMin= 2.89D-06
 ErrMax= 2.89D-06  0.00D+00 EMaxC= 1.00D-01 BMatC= 8.01D-09 BMatP= 2.00D-08
 IDIUse=1 WtCom= 1.00D+00 WtEn= 0.00D+00
 Coeff-Com:  0.203D-04-0.964D-02-0.394D-02-0.103D-01-0.704D-02 0.120D+00
 Coeff-Com:  0.223D+00 0.358D+00 0.330D+00
 Coeff:      0.203D-04-0.964D-02-0.394D-02-0.103D-01-0.704D-02 0.120D+00
 Coeff:      0.223D+00 0.358D+00 0.330D+00
 Gap=     0.123 Goal=   None    Shift=    0.000
 RMSDP=2.40D-07 MaxDP=9.50D-06 DE=-1.35D-08 OVMax= 2.87D-05

 Cycle  10  Pass 1  IDiag  1:
 RMSU=  8.72D-08    CP:  9.99D-01  8.66D-01  4.53D-01  4.67D-01  6.18D-01
                    CP:  1.13D+00  7.24D-01  5.67D-01  5.39D-01
 E= -7517.81574416588     Delta-E=       -0.000000009906 Rises=F Damp=F
 DIIS: error= 2.14D-07 at cycle  10 NSaved=  10.
 NSaved=10 IEnMin=10 EnMin= -7517.81574416588     IErMin=10 ErrMin= 2.14D-07
 ErrMax= 2.14D-07  0.00D+00 EMaxC= 1.00D-01 BMatC= 6.87D-11 BMatP= 8.01D-09
 IDIUse=1 WtCom= 1.00D+00 WtEn= 0.00D+00
 Coeff-Com:  0.339D-05-0.767D-03-0.232D-03-0.116D-02-0.242D-02-0.215D-02
 Coeff-Com:  0.616D-02 0.505D-01 0.808D-01 0.869D+00
 Coeff:      0.339D-05-0.767D-03-0.232D-03-0.116D-02-0.242D-02-0.215D-02
 Coeff:      0.616D-02 0.505D-01 0.808D-01 0.869D+00
 Gap=     0.123 Goal=   None    Shift=    0.000
 RMSDP=5.86D-08 MaxDP=2.92D-06 DE=-9.91D-09 OVMax= 9.67D-06

 Cycle  11  Pass 1  IDiag  1:
 RMSU=  3.29D-08    CP:  9.99D-01  8.66D-01  4.53D-01  4.67D-01  6.19D-01
                    CP:  1.14D+00  7.27D-01  5.93D-01  6.17D-01  1.07D+00
 E= -7517.81574416549     Delta-E=        0.000000000382 Rises=F Damp=F
 DIIS: error= 2.44D-07 at cycle  11 NSaved=  11.
 NSaved=11 IEnMin=10 EnMin= -7517.81574416588     IErMin=10 ErrMin= 2.14D-07
 ErrMax= 2.44D-07  0.00D+00 EMaxC= 1.00D-01 BMatC= 5.17D-11 BMatP= 6.87D-11
 IDIUse=1 WtCom= 1.00D+00 WtEn= 0.00D+00
 Coeff-Com:  0.199D-06 0.438D-03 0.238D-03 0.205D-03-0.804D-03-0.132D-01
 Coeff-Com: -0.177D-01-0.143D-02 0.205D-01 0.592D+00 0.420D+00
 Coeff:      0.199D-06 0.438D-03 0.238D-03 0.205D-03-0.804D-03-0.132D-01
 Coeff:     -0.177D-01-0.143D-02 0.205D-01 0.592D+00 0.420D+00
 Gap=     0.123 Goal=   None    Shift=    0.000
 RMSDP=2.96D-08 MaxDP=1.19D-06 DE= 3.82D-10 OVMax= 3.93D-06

 Cycle  12  Pass 1  IDiag  1:
 RMSU=  1.89D-08    CP:  9.99D-01  8.66D-01  4.53D-01  4.67D-01  6.19D-01
                    CP:  1.14D+00  7.30D-01  5.98D-01  6.22D-01  1.18D+00
                    CP:  4.30D-01
 E= -7517.81574416602     Delta-E=       -0.000000000526 Rises=F Damp=F
 DIIS: error= 1.80D-07 at cycle  12 NSaved=  12.
 NSaved=12 IEnMin=12 EnMin= -7517.81574416602     IErMin=12 ErrMin= 1.80D-07
 ErrMax= 1.80D-07  0.00D+00 EMaxC= 1.00D-01 BMatC= 2.09D-11 BMatP= 5.17D-11
 IDIUse=1 WtCom= 1.00D+00 WtEn= 0.00D+00
 Coeff-Com: -0.714D-06 0.578D-03 0.267D-03 0.464D-03-0.350D-05-0.108D-01
 Coeff-Com: -0.169D-01-0.145D-01-0.316D-02 0.291D+00 0.368D+00 0.385D+00
 Coeff:     -0.714D-06 0.578D-03 0.267D-03 0.464D-03-0.350D-05-0.108D-01
 Coeff:     -0.169D-01-0.145D-01-0.316D-02 0.291D+00 0.368D+00 0.385D+00
 Gap=     0.123 Goal=   None    Shift=    0.000
 RMSDP=1.41D-08 MaxDP=5.85D-07 DE=-5.26D-10 OVMax= 1.73D-06

 Cycle  13  Pass 1  IDiag  1:
 RMSU=  5.64D-09    CP:  9.99D-01  8.66D-01  4.53D-01  4.67D-01  6.20D-01
                    CP:  1.14D+00  7.31D-01  6.02D-01  6.26D-01  1.20D+00
                    CP:  6.37D-01  4.88D-01
 E= -7517.81574416581     Delta-E=        0.000000000209 Rises=F Damp=F
 DIIS: error= 2.02D-08 at cycle  13 NSaved=  13.
 NSaved=13 IEnMin=12 EnMin= -7517.81574416602     IErMin=13 ErrMin= 2.02D-08
 ErrMax= 2.02D-08  0.00D+00 EMaxC= 1.00D-01 BMatC= 7.69D-13 BMatP= 2.09D-11
 IDIUse=1 WtCom= 1.00D+00 WtEn= 0.00D+00
 Coeff-Com: -0.400D-06 0.252D-03 0.111D-03 0.224D-03 0.134D-03-0.393D-02
 Coeff-Com: -0.692D-02-0.786D-02-0.433D-02 0.748D-01 0.143D+00 0.216D+00
 Coeff-Com:  0.588D+00
 Coeff:     -0.400D-06 0.252D-03 0.111D-03 0.224D-03 0.134D-03-0.393D-02
 Coeff:     -0.692D-02-0.786D-02-0.433D-02 0.748D-01 0.143D+00 0.216D+00
 Coeff:      0.588D+00
 Gap=     0.123 Goal=   None    Shift=    0.000
 RMSDP=3.53D-09 MaxDP=2.35D-07 DE= 2.09D-10 OVMax= 4.26D-07

 SCF Done:  E(RPBE1PBE) =  -7517.81574417     A.U. after   13 cycles
            NFock= 13  Conv=0.35D-08     -V/T= 2.1284
 KE= 6.662200209012D+03 PE=-2.474745054908D+04 EE= 6.989531708459D+03
 Leave Link  502 at Tue Mar  6 14:54:38 2018, MaxMem=   536870912 cpu:      2282.1
 (Enter /share/apps//mg09/l701.exe)
 Compute integral first derivatives.
 ... and contract with generalized density number  0.
   1 Symmetry operations used in ECPInt.
 ECPInt:  NShTT=   10440 NPrTT=   41973 LenC2=    9686 LenP2D=   27645.
 LDataN:  DoStor=T MaxTD1= 9 Len=  602
 Leave Link  701 at Tue Mar  6 14:54:56 2018, MaxMem=   536870912 cpu:        69.1
 (Enter /share/apps//mg09/l702.exe)
 L702 exits ... SP integral derivatives will be done elsewhere.
 Leave Link  702 at Tue Mar  6 14:54:56 2018, MaxMem=   536870912 cpu:         0.1
 (Enter /share/apps//mg09/l703.exe)
 Compute integral first derivatives, UseDBF=F ICtDFT=           0.
 Integral derivatives from FoFJK, PRISM(SPDF).
 Calling FoFJK, ICntrl=      2127 FMM=F ISym2X=0 I1Cent= 0 IOpClX= 0 NMat=1 NMatS=1 NMatT=0.
 FoFJK:  IHMeth= 1 ICntrl=    2127 DoSepK=F KAlg= 0 I1Cent=   0 FoldK=F
 IRaf=         0 NMat=   1 IRICut=       1 DoRegI=T DoRafI=F ISym2E= 0.
 FoFCou: FMM=F IPFlag=           0 FMFlag=      100000 FMFlg1=         800
         NFxFlg=           0 DoJE=F BraDBF=F KetDBF=F FulRan=T
         wScrn=  0.000000 ICntrl=    2127 IOpCl=  0 I1Cent=           0 NGrid=           0
         NMat0=    1 NMatS0=      1 NMatT0=    0 NMatD0=    1 NMtDS0=    0 NMtDT0=    0
 Symmetry not used in FoFCou.
 Defaulting to unpruned grid for atomic number  50.
 Defaulting to unpruned grid for atomic number  50.
 Defaulting to unpruned grid for atomic number  50.
 Defaulting to unpruned grid for atomic number  50.
 Leave Link  703 at Tue Mar  6 14:57:49 2018, MaxMem=   536870912 cpu:       692.2
 (Enter /share/apps//mg09/l716.exe)
 Dipole        = 5.00041896D-01-1.07255011D-03 3.84381236D-01
 ***** Axes restored to original set *****
 -------------------------------------------------------------------
 Center     Atomic                   Forces (Hartrees/Bohr)
 Number     Number              X              Y              Z
 -------------------------------------------------------------------
      1       50           0.000374969   -0.005512998   -0.001692143
      2       50           0.000361972    0.005502446   -0.001707443
      3       83          -0.003700924    0.000037260    0.000580603
      4       83          -0.002547708   -0.001050317   -0.001328791
      5       83          -0.002566264    0.001004587   -0.001309920
      6       32           0.000723054    0.004332546    0.005647971
      7       32           0.003103479   -0.000092270   -0.005568210
      8       83           0.003699957    0.000030398   -0.000151177
      9       32           0.000551464   -0.004251653    0.005529110
 -------------------------------------------------------------------
 Cartesian Forces:  Max     0.005647971 RMS     0.003066726
 Leave Link  716 at Tue Mar  6 14:57:50 2018, MaxMem=   536870912 cpu:         0.1
 (Enter /share/apps//mg09/l103.exe)

 GradGradGradGradGradGradGradGradGradGradGradGradGradGradGradGradGradGrad
 Berny optimization.
 Search for a local minimum.
 Step number   2 out of a maximum of  100
 All quantities printed in internal units (Hartrees-Bohrs-Radians)
 Update second derivatives using D2CorN and points    1    2
 DE= -5.51D-03 DEPred=-4.08D-03 R= 1.35D+00
 TightC=F SS=  1.41D+00  RLast= 2.19D-01 DXNew= 5.0454D-01 6.5799D-01
 Trust test= 1.35D+00 RLast= 2.19D-01 DXMaxT set to 5.05D-01
 ITU=  1  0
     Eigenvalues ---    0.08569   0.09428   0.11790   0.12104   0.12754
     Eigenvalues ---    0.13670   0.14529   0.14596   0.15439   0.16405
     Eigenvalues ---    0.17000   0.22039   0.22725   0.23733   0.24100
     Eigenvalues ---    0.24745   0.26817   0.28248   0.28482   0.30641
     Eigenvalues ---    0.32050
 RFO step:  Lambda=-3.59241853D-04 EMin= 8.56879859D-02
 Quartic linear search produced a step of  0.59662.
 TrRot=  0.000039  0.000001  0.000224  0.000002 -0.000015  0.000002
 Variable       Old X    -DE/DX   Delta X   Delta X   Delta X     New X
                                 (Linear)    (Quad)   (Total)
    X1       -1.55558   0.00037   0.00393  -0.00206   0.00187  -1.55370
    Y1        4.44371  -0.00551  -0.04489  -0.00368  -0.04858   4.39513
    Z1        1.23761  -0.00169  -0.01426  -0.00051  -0.01456   1.22305
    X2       -1.57554   0.00036   0.00402  -0.00236   0.00169  -1.57384
    Y2       -4.42774   0.00550   0.04483   0.00370   0.04853  -4.37921
    Z2        1.26317  -0.00171  -0.01444  -0.00059  -0.01482   1.24834
    X3        2.28552  -0.00370  -0.02363  -0.00214  -0.02578   2.25974
    Y3       -0.00853   0.00004   0.00008   0.00015   0.00024  -0.00829
    Z3        3.51815   0.00058  -0.02527   0.01328  -0.01173   3.50642
    X4        3.27973  -0.00255  -0.02724   0.00452  -0.02265   3.25708
    Y4       -2.85459  -0.00105   0.02232  -0.01964   0.00269  -2.85190
    Z4       -1.38359  -0.00133   0.00525  -0.01097  -0.00544  -1.38903
    X5        3.30366  -0.00257  -0.02752   0.00435  -0.02312   3.28054
    Y5        2.84006   0.00100  -0.02237   0.01924  -0.00312   2.83694
    Z5       -1.37733  -0.00131   0.00511  -0.01143  -0.00605  -1.38338
    X6       -1.39465   0.00072   0.00786   0.00133   0.00929  -1.38535
    Y6       -2.59491   0.00433   0.03290   0.00597   0.03886  -2.55604
    Z6       -4.05207   0.00565   0.03990   0.00921   0.04932  -4.00275
    X7       -2.94483   0.00310   0.02106  -0.00050   0.02053  -2.92430
    Y7        0.02205  -0.00009  -0.00044  -0.00041  -0.00086   0.02119
    Z7        4.26582  -0.00557  -0.04266  -0.00729  -0.04978   4.21604
    X8       -4.82495   0.00370   0.03449  -0.00418   0.03035  -4.79460
    Y8        0.01119   0.00003   0.00010   0.00027   0.00036   0.01155
    Z8       -0.80036  -0.00015   0.00683  -0.00243   0.00455  -0.79581
    X9       -1.36693   0.00055   0.00703   0.00068   0.00780  -1.35913
    Y9        2.57899  -0.00425  -0.03253  -0.00559  -0.03813   2.54087
    Z9       -4.05800   0.00553   0.03954   0.00877   0.04852  -4.00948
         Item               Value     Threshold  Converged?
 Maximum Force            0.005648     0.000450     NO 
 RMS     Force            0.003067     0.000300     NO 
[...]
             X       X               XX                                                                                              
                     X               XX                                                                                              
                     X                X                                                                                              
                     X                X                                                                                              
                     X                X                                                                                              
                     X                X                                                                                              
                                      X                                                                                              
                                      X                                                                                              
                                      X                                                                                              
                                      X                                                                                              
                                      X                                                                                              
                                      X                                                                                              
                                      X                                                                                              
                                      X                                                                                              
                                      X                                                                                              
 
 ***** Axes restored to original set *****
 -------------------------------------------------------------------
 Center     Atomic                   Forces (Hartrees/Bohr)
 Number     Number              X              Y              Z
 -------------------------------------------------------------------
      1       50           0.000119839   -0.000069669    0.000083998
      2       50           0.000097728    0.000050445    0.000041021
      3       83          -0.000034548    0.000039274   -0.000095311
      4       83          -0.000036094   -0.000026417    0.000063670
      5       83          -0.000059606   -0.000005622    0.000035004
      6       32           0.000004404   -0.000028435   -0.000062463
      7       32          -0.000051705   -0.000008564    0.000028833
      8       83          -0.000028974    0.000001130   -0.000003040
      9       32          -0.000011044    0.000047858   -0.000091712
 -------------------------------------------------------------------
 Cartesian Forces:  Max     0.000119839 RMS     0.000055349
 Force constants in Cartesian coordinates: 
                1             2             3             4             5 
      1  0.445297D-01
      2  0.933926D-04  0.651900D-01
      3 -0.119617D-01  0.114734D-01  0.391322D-01
      4 -0.416548D-02  0.136651D-02 -0.841576D-03  0.443168D-01
      5 -0.136838D-02 -0.586106D-02  0.299640D-02  0.201281D-03  0.651772D-01
      6 -0.857102D-03 -0.295914D-02  0.218491D-02 -0.118730D-01 -0.113341D-01
      7 -0.322205D-02  0.591433D-02 -0.380035D-02 -0.342326D-02 -0.617441D-02
      8  0.739548D-02 -0.748092D-02  0.158650D-02 -0.762927D-02 -0.757170D-02
      9 -0.516654D-02  0.104827D-02 -0.288647D-02 -0.528677D-02 -0.107241D-02
     10  0.202195D-02  0.500444D-04 -0.241296D-02 -0.241185D-01 -0.586478D-02
     11  0.869905D-02 -0.330995D-02 -0.119671D-02 -0.619584D-02 -0.450923D-02
     12  0.104209D-02 -0.690808D-03 -0.399667D-02  0.168902D-01  0.277531D-02
     13 -0.243380D-01  0.604024D-02  0.141552D-01  0.198145D-02 -0.569276D-04
     14  0.640306D-02 -0.458151D-02 -0.371150D-02 -0.866090D-02 -0.322799D-02
     15  0.168285D-01 -0.290170D-02 -0.413640D-02  0.112225D-02  0.687109D-03
     16 -0.368049D-02  0.906691D-03  0.201781D-02  0.195582D-02 -0.693069D-03
     17 -0.294474D-02 -0.343519D-02 -0.595829D-02 -0.112672D-02 -0.719012D-02
     18 -0.156516D-03 -0.893045D-03 -0.322660D-02 -0.660008D-03  0.625500D-02
     19 -0.224905D-02 -0.431732D-02  0.531487D-02 -0.218300D-02  0.426089D-02
     20 -0.650880D-02 -0.164840D-01  0.101117D-01  0.644984D-02 -0.166800D-01
     21  0.555137D-02  0.941697D-02 -0.880842D-02  0.547853D-02 -0.937640D-02
     22 -0.109012D-01 -0.106987D-01 -0.443941D-02 -0.106913D-01  0.105838D-01
     23 -0.128443D-01 -0.167866D-01 -0.951180D-02  0.126777D-01 -0.167111D-01
     24 -0.463727D-02 -0.812061D-02 -0.162913D-02 -0.463608D-02  0.815440D-02
     25  0.200466D-02  0.644844D-03  0.196808D-02 -0.367244D-02 -0.888356D-03
     26  0.107529D-02 -0.725084D-02 -0.578971D-02  0.291744D-02 -0.342600D-02
     27 -0.642863D-03 -0.637334D-02 -0.166334D-01 -0.193585D-03  0.914656D-03
                6             7             8             9            10 
      6  0.391955D-01
      7 -0.391077D-02  0.694582D-01
      8 -0.160953D-02  0.295163D-04  0.331996D-01
      9 -0.297610D-02  0.454399D-02  0.706461D-04  0.791116D-01
     10  0.142570D-01 -0.574945D-02  0.450738D-02  0.470242D-02  0.716525D-01
     11  0.361878D-02  0.284020D-02 -0.667250D-02 -0.167533D-01 -0.708049D-02
     12 -0.424091D-02  0.257739D-02 -0.175089D-01 -0.270697D-01 -0.902180D-02
     13 -0.237049D-02 -0.576163D-02 -0.457541D-02  0.481209D-02 -0.183417D-02
     14  0.115303D-02 -0.289676D-02 -0.671434D-02  0.167562D-01  0.180857D-02
     15 -0.396886D-02  0.263622D-02  0.174645D-01 -0.271248D-01  0.449548D-02
     16  0.190468D-02  0.373327D-03 -0.633730D-02 -0.414705D-02 -0.339398D-01
     17  0.566802D-02 -0.183955D-02 -0.121811D-02  0.220346D-02  0.554015D-02
     18 -0.165514D-01  0.391319D-03 -0.472614D-02 -0.607214D-02 -0.130369D-01
     19  0.522823D-02 -0.470821D-01  0.242051D-03  0.588815D-02 -0.174302D-02
     20 -0.100765D-01  0.245643D-03  0.180946D-02 -0.555544D-04  0.579176D-03
     21 -0.865363D-02  0.208118D-02 -0.505807D-04 -0.584622D-02  0.210065D-03
     22 -0.444011D-02 -0.501425D-02  0.000000D+00 -0.113981D-02 -0.473634D-02
     23  0.952328D-02  0.322301D-05 -0.410861D-02 -0.163703D-05  0.186014D-02
     24 -0.174757D-02 -0.494259D-02  0.245661D-04 -0.988548D-03  0.497727D-03
     25  0.206155D-02  0.421184D-03  0.636747D-02 -0.420647D-02 -0.155321D-02
     26  0.601616D-02  0.187781D-02 -0.124287D-02 -0.219565D-02 -0.140019D-02
     27 -0.324201D-02  0.423613D-03  0.474899D-02 -0.614764D-02  0.309009D-03
               11            12            13            14            15 
     11  0.668490D-01
     12  0.154367D-01  0.475668D-01
     13 -0.209048D-02  0.448232D-02  0.716977D-01
     14 -0.461345D-01 -0.563739D-03  0.713610D-02  0.668009D-01
     15  0.536767D-03  0.224856D-02 -0.912327D-02 -0.153052D-01  0.475014D-01
     16  0.225729D-02 -0.163541D-01 -0.156858D-02 -0.309861D-02 -0.457070D-02
     17  0.219431D-02 -0.138413D-02  0.135747D-02 -0.447388D-02 -0.220202D-02
     18 -0.210327D-02 -0.121527D-01  0.303906D-03  0.163545D-02  0.348809D-03
     19 -0.454337D-04  0.456533D-02 -0.175792D-02  0.456460D-04  0.457775D-02
     20 -0.247955D-02 -0.287182D-02 -0.594549D-03 -0.244371D-02  0.287480D-02
     21  0.862155D-03 -0.169721D-02  0.212920D-03 -0.840004D-03 -0.167785D-02
     22 -0.140756D-02  0.368926D-03 -0.469513D-02  0.144332D-02  0.346296D-03
     23 -0.147426D-02  0.255709D-02 -0.179724D-02 -0.144522D-02 -0.253993D-02
     24  0.121658D-02 -0.100510D-02  0.466420D-03 -0.121522D-02 -0.101417D-02
     25  0.302327D-02 -0.455032D-02 -0.337237D-01 -0.218043D-02 -0.163126D-01
     26 -0.446325D-02  0.225034D-02 -0.541921D-02  0.222028D-02  0.138572D-02
     27 -0.161772D-02  0.346829D-03 -0.129391D-01  0.209104D-02 -0.121766D-01
               16            17            18            19            20 
     16  0.591077D-01
     17 -0.137817D-01  0.497826D-01
     18  0.397381D-02  0.151292D-01  0.610083D-01
     19 -0.597482D-03  0.108941D-02 -0.149485D-02  0.663494D-01
     20  0.321854D-02 -0.509082D-03 -0.223198D-02 -0.195740D-03  0.338496D-01
     21  0.198131D-02  0.805456D-03 -0.361398D-02 -0.732360D-02  0.969304D-04
     22 -0.202127D-01  0.141050D-01  0.100789D-01 -0.100756D-01  0.275211D-04
     23  0.153916D-01 -0.654555D-02 -0.142093D-01  0.187414D-04  0.345900D-02
     24  0.145959D-01 -0.131383D-01 -0.153335D-01 -0.152789D-01 -0.414075D-04
     25 -0.143779D-02 -0.239940D-02  0.600361D-03 -0.661366D-03 -0.322163D-02
     26  0.213655D-02 -0.286050D-01  0.114405D-02 -0.109824D-02 -0.521765D-03
     27  0.598418D-03 -0.112337D-02 -0.440683D-02 -0.147694D-02  0.219386D-02
               21            22            23            24            25 
     21  0.707809D-01
     22 -0.101823D-01  0.866787D-01
     23 -0.543086D-04 -0.928987D-04  0.497944D-01
     24 -0.368649D-01 -0.763797D-03  0.187497D-03  0.740037D-01
     25  0.199048D-02 -0.203521D-01 -0.152169D-01  0.146987D-01  0.589748D-01
     26 -0.860217D-03 -0.139605D-01 -0.618219D-02  0.129325D-01  0.138711D-01
     27 -0.361867D-02  0.101713D-01  0.140491D-01 -0.154207D-01  0.375022D-02
               26            27 
     26  0.494717D-01
     27 -0.148832D-01  0.612991D-01
 Leave Link  716 at Tue Mar  6 16:51:14 2018, MaxMem=   536870912 cpu:         0.1
 (Enter /share/apps//mg09/l103.exe)

 GradGradGradGradGradGradGradGradGradGradGradGradGradGradGradGradGradGrad
 Berny optimization.
 Search for a local minimum.
 Step number   1 out of a maximum of    2
 All quantities printed in internal units (Hartrees-Bohrs-Radians)
 Second derivative matrix not updated -- analytic derivatives used.
 ITU=  0
     Eigenvalues ---    0.00363   0.01997   0.02558   0.03614   0.04414
     Eigenvalues ---    0.04615   0.04950   0.05567   0.05833   0.05997
     Eigenvalues ---    0.06472   0.06735   0.08153   0.09087   0.10735
     Eigenvalues ---    0.10793   0.11866   0.12429   0.12460   0.13733
     Eigenvalues ---    0.14591
 Angle between quadratic step and forces=  60.01 degrees.
 Linear search not attempted -- first point.
 TrRot= -0.000073  0.000092 -0.000047  0.000017 -0.000014  0.000017
 Variable       Old X    -DE/DX   Delta X   Delta X   Delta X     New X
                                 (Linear)    (Quad)   (Total)
    X1       -1.53919   0.00012   0.00000   0.00560   0.00536  -1.53383
    Y1        4.37996  -0.00007   0.00000  -0.00236  -0.00232   4.37763
    Z1        1.22456   0.00008   0.00000   0.00595   0.00588   1.23044
    X2       -1.56081   0.00010   0.00000   0.00019   0.00025  -1.56056
    Y2       -4.36448   0.00005   0.00000   0.00039   0.00043  -4.36405
    Z2        1.24800   0.00004   0.00000  -0.00113  -0.00120   1.24680
    X3        2.25518  -0.00003   0.00000  -0.00129  -0.00141   2.25376
    Y3       -0.00632   0.00004   0.00000   0.00616   0.00633   0.00001
    Z3        3.51900  -0.00010   0.00000  -0.00083  -0.00085   3.51815
    X4        3.26382  -0.00004   0.00000   0.00169   0.00173   3.26556
    Y4       -2.86306  -0.00003   0.00000  -0.00466  -0.00445  -2.86751
    Z4       -1.39799   0.00006   0.00000   0.00647   0.00647  -1.39152
    X5        3.28558  -0.00006   0.00000  -0.00277  -0.00292   3.28266
    Y5        2.84541  -0.00001   0.00000  -0.00406  -0.00386   2.84155
    Z5       -1.39607   0.00004   0.00000  -0.00705  -0.00705  -1.40313
    X6       -1.38192   0.00000   0.00000   0.00378   0.00385  -1.37807
    Y6       -2.53825  -0.00003   0.00000   0.00294   0.00299  -2.53526
    Z6       -3.98535  -0.00006   0.00000  -0.00043  -0.00050  -3.98584
    X7       -2.92774  -0.00005   0.00000  -0.00224  -0.00237  -2.93011
    Y7        0.01943  -0.00001   0.00000  -0.00284  -0.00285   0.01659
    Z7        4.19880   0.00003   0.00000   0.00017   0.00008   4.19888
    X8       -4.82977  -0.00003   0.00000   0.00009   0.00002  -4.82974
    Y8        0.01253   0.00000   0.00000   0.00040   0.00033   0.01286
    Z8       -0.80400   0.00000   0.00000  -0.00078  -0.00090  -0.80490
    X9       -1.35871  -0.00001   0.00000  -0.00440  -0.00451  -1.36322
    Y9        2.52501   0.00005   0.00000   0.00336   0.00341   2.52842
    Z9       -3.99355  -0.00009   0.00000  -0.00187  -0.00194  -3.99549
         Item               Value     Threshold  Converged?
 Maximum Force            0.000120     0.000450     YES
 RMS     Force            0.000055     0.000300     YES
 Maximum Displacement     0.007054     0.001800     NO 
 RMS     Displacement     0.003471     0.001200     NO 
 Predicted change in Energy=-1.296227D-06
 GradGradGradGradGradGradGradGradGradGradGradGradGradGradGradGradGradGrad

 Leave Link  103 at Tue Mar  6 16:51:14 2018, MaxMem=   536870912 cpu:         0.1
 (Enter /share/apps//mg09/l9999.exe)
 1\1\GINC-COMPUTE-0-5\Freq\RPBE1PBE\def2TZVP\Bi4Ge3Sn2\RODRIGO\06-Mar-2
 018\0\\#P Geom=AllCheck Guess=TCheck SCRF=Check GenChk RPBE1PBE/def2TZ
 VP Freq\\01Final_coords.xyz_36\\0,1\Sn,-0.814503409,2.317772995,0.6480
 103989\Sn,-0.8259442525,-2.3095813342,0.6604133918\Bi,1.1933884053,-0.
 0033461784,1.8621728495\Bi,1.7271407555,-1.5150645604,-0.7397839203\Bi
 ,1.7386548855,1.5057264548,-0.7387690839\Ge,-0.731281425,-1.3431837094
 ,-2.1089539543\Ge,-1.549293768,0.0102845518,2.2219088207\Bi,-2.5558021
 841,0.0066314008,-0.4254590172\Ge,-0.7190010077,1.3361783797,-2.113295
 4848\\Version=ES64L-G09RevD.01\State=1-A\HF=-7517.8170844\RMSD=4.553e-
 09\RMSF=5.535e-05\ZeroPoint=0.00579\Thermal=0.0232886\Dipole=0.5180983
 ,-0.0005125,0.3826658\DipoleDeriv=0.0549103,-0.0893304,0.0259112,-0.07
 1924,0.2604445,0.0318011,0.0255149,0.0862569,0.1133024,0.0564258,0.091
 1953,0.0236065,0.0731345,0.2601529,-0.0342163,0.023589,-0.0865871,0.11
 1973,0.0468993,-0.0009536,0.0740088,-0.0004741,0.0532863,0.0012521,-0.
 0095309,0.0002112,0.0028949,-0.0033582,-0.1419823,-0.0869397,-0.051151
 3,-0.040033,-0.0161601,0.0352927,-0.0608187,-0.0650046,-0.0034276,0.14
 20944,-0.0878973,0.0515851,-0.0418894,0.0144234,0.0350547,0.059067,-0.
 0685821,-0.120147,0.1053415,0.0837447,0.0522074,-0.141861,0.1381921,-0
 .0138911,0.0748086,-0.0376843,-0.0985913,-0.0010215,-0.1853252,-0.0005
 342,-0.2274075,0.0011215,-0.1277632,0.0012464,0.0942951,0.1864254,-0.0
 004347,0.0722031,0.0001115,0.0188332,-0.0012149,0.0470939,-0.0012106,-
 0.1127302,-0.1191368,-0.1049087,0.0806879,-0.0529549,-0.1415259,-0.135
 1989,-0.0153601,-0.0729737,-0.0384642\Polar=377.4074366,0.0471549,387.
 8450202,-6.1013105,-0.0012293,364.7204484\PG=C01 [X(Bi4Ge3Sn2)]\NImag=
 0\\0.04452968,0.00009339,0.06519000,-0.01196171,0.01147340,0.03913218,
 -0.00416548,0.00136651,-0.00084158,0.04431676,-0.00136838,-0.00586106,
 0.00299640,0.00020128,0.06517715,-0.00085710,-0.00295914,0.00218491,-0
 .01187297,-0.01133407,0.03919555,-0.00322205,0.00591433,-0.00380035,-0
 .00342326,-0.00617441,-0.00391077,0.06945818,0.00739548,-0.00748092,0.
 00158650,-0.00762927,-0.00757170,-0.00160953,0.00002952,0.03319960,-0.
 00516654,0.00104827,-0.00288647,-0.00528677,-0.00107241,-0.00297610,0.
 00454399,0.00007065,0.07911164,0.00202195,0.00005004,-0.00241296,-0.02
 411852,-0.00586478,0.01425699,-0.00574945,0.00450738,0.00470242,0.0716
 5253,0.00869905,-0.00330995,-0.00119671,-0.00619584,-0.00450923,0.0036
 1878,0.00284020,-0.00667250,-0.01675328,-0.00708049,0.06684898,0.00104
 209,-0.00069081,-0.00399667,0.01689020,0.00277531,-0.00424091,0.002577
 39,-0.01750894,-0.02706968,-0.00902180,0.01543670,0.04756684,-0.024338
 05,0.00604024,0.01415524,0.00198145,-0.00005693,-0.00237049,-0.0057616
 3,-0.00457541,0.00481209,-0.00183417,-0.00209048,0.00448232,0.07169774
 ,0.00640306,-0.00458151,-0.00371150,-0.00866090,-0.00322799,0.00115303
 ,-0.00289676,-0.00671434,0.01675616,0.00180857,-0.04613454,-0.00056374
 ,0.00713610,0.06680092,0.01682853,-0.00290170,-0.00413640,0.00112225,0
 .00068711,-0.00396886,0.00263622,0.01746447,-0.02712484,0.00449548,0.0
 0053677,0.00224856,-0.00912327,-0.01530522,0.04750136,-0.00368049,0.00
 090669,0.00201781,0.00195582,-0.00069307,0.00190468,0.00037333,-0.0063
 3730,-0.00414705,-0.03393978,0.00225729,-0.01635414,-0.00156858,-0.003
 09861,-0.00457070,0.05910771,-0.00294474,-0.00343519,-0.00595829,-0.00
 112672,-0.00719012,0.00566802,-0.00183955,-0.00121811,0.00220346,0.005
 54015,0.00219431,-0.00138413,0.00135747,-0.00447388,-0.00220202,-0.013
 78166,0.04978265,-0.00015652,-0.00089305,-0.00322660,-0.00066001,0.006
 25500,-0.01655138,0.00039132,-0.00472614,-0.00607214,-0.01303693,-0.00
 210327,-0.01215266,0.00030391,0.00163545,0.00034881,0.00397381,0.01512
 918,0.06100829,-0.00224905,-0.00431732,0.00531487,-0.00218300,0.004260
 89,0.00522823,-0.04708206,0.00024205,0.00588815,-0.00174302,-0.0000454
 3,0.00456533,-0.00175792,0.00004565,0.00457775,-0.00059748,0.00108941,
 -0.00149485,0.06634945,-0.00650880,-0.01648397,0.01011170,0.00644984,-
 0.01668000,-0.01007654,0.00024564,0.00180946,-0.00005555,0.00057918,-0
 .00247955,-0.00287182,-0.00059455,-0.00244371,0.00287480,0.00321854,-0
 .00050908,-0.00223198,-0.00019574,0.03384961,0.00555137,0.00941697,-0.
 00880842,0.00547853,-0.00937640,-0.00865363,0.00208118,-0.00005058,-0.
 00584622,0.00021006,0.00086215,-0.00169721,0.00021292,-0.00084000,-0.0
 0167785,0.00198131,0.00080546,-0.00361398,-0.00732360,0.00009693,0.070
 78092,-0.01090117,-0.01069872,-0.00443941,-0.01069134,0.01058375,-0.00
 444011,-0.00501425,0.00000009,-0.00113981,-0.00473634,-0.00140756,0.00
 036893,-0.00469513,0.00144332,0.00034630,-0.02021274,0.01410503,0.0100
 7890,-0.01007556,0.00002752,-0.01018226,0.08667867,-0.01284434,-0.0167
 8656,-0.00951180,0.01267766,-0.01671105,0.00952328,0.00000322,-0.00410
 861,-0.00000164,0.00186014,-0.00147426,0.00255709,-0.00179724,-0.00144
 522,-0.00253993,0.01539156,-0.00654555,-0.01420925,0.00001874,0.003459
 00,-0.00005431,-0.00009290,0.04979445,-0.00463727,-0.00812061,-0.00162
 913,-0.00463608,0.00815440,-0.00174757,-0.00494259,0.00002457,-0.00098
 855,0.00049773,0.00121658,-0.00100510,0.00046642,-0.00121522,-0.001014
 17,0.01459586,-0.01313830,-0.01533350,-0.01527894,-0.00004141,-0.03686
 493,-0.00076380,0.00018750,0.07400369,0.00200466,0.00064484,0.00196808
 ,-0.00367244,-0.00088836,0.00206155,0.00042118,0.00636747,-0.00420647,
 -0.00155321,0.00302327,-0.00455032,-0.03372372,-0.00218043,-0.01631256
 ,-0.00143779,-0.00239940,0.00060036,-0.00066137,-0.00322163,0.00199048
 ,-0.02035215,-0.01521686,0.01469866,0.05897482,0.00107529,-0.00725084,
 -0.00578971,0.00291744,-0.00342600,0.00601616,0.00187781,-0.00124287,-
 0.00219565,-0.00140019,-0.00446325,0.00225034,-0.00541921,0.00222028,0
 .00138572,0.00213655,-0.02860502,0.00114405,-0.00109824,-0.00052176,-0
 .00086022,-0.01396053,-0.00618219,0.01293250,0.01387108,0.04947166,-0.
 00064286,-0.00637334,-0.01663340,-0.00019359,0.00091466,-0.00324201,0.
 00042361,0.00474899,-0.00614764,0.00030901,-0.00161772,0.00034683,-0.0
 1293914,0.00209104,-0.01217661,0.00059842,-0.00112337,-0.00440683,-0.0
 0147694,0.00219386,-0.00361867,0.01017127,0.01404908,-0.01542075,0.003
 75022,-0.01488320,0.06129909\\-0.00011984,0.00006967,-0.00008400,-0.00
 009773,-0.00005045,-0.00004102,0.00003455,-0.00003927,0.00009531,0.000
 03609,0.00002642,-0.00006367,0.00005961,0.00000562,-0.00003500,-0.0000
 0440,0.00002843,0.00006246,0.00005171,0.00000856,-0.00002883,0.0000289
 7,-0.00000113,0.00000304,0.00001104,-0.00004786,0.00009171\\\@


 FIREWORKS ENDED
 AND SPECTATORS GONE AWAY....
 AH, HOW VAST AND DARK
                     SHIKI
 Job cpu time:       0 days  3 hours 47 minutes 17.3 seconds.
 File lengths (MBytes):  RWF=    299 Int=      0 D2E=      0 Chk=     16 Scr=      1
 Normal termination of Gaussian 09 at Tue Mar  6 16:51:16 2018.
