 Entering Gaussian System, Link 0=/share/apps/mg09/g09
 Initial command:
 /share/apps//mg09/l1.exe "/state/partition1/gauss_tmp/Gau-8177.inp" -scrdir="/state/partition1/gauss_tmp/"
 Entering Link 1 = /share/apps//mg09/l1.exe PID=      8187.
  
 Copyright (c) 1988,1990,1992,1993,1995,1998,2003,2009,2013,
            Gaussian, Inc.  All Rights Reserved.
  
 This is part of the Gaussian(R) 09 program.  It is based on
 the Gaussian(R) 03 system (copyright 2003, Gaussian, Inc.),
 the Gaussian(R) 98 system (copyright 1998, Gaussian, Inc.),
 the Gaussian(R) 94 system (copyright 1995, Gaussian, Inc.),
 the Gaussian 92(TM) system (copyright 1992, Gaussian, Inc.),
 the Gaussian 90(TM) system (copyright 1990, Gaussian, Inc.),
 the Gaussian 88(TM) system (copyright 1988, Gaussian, Inc.),
 the Gaussian 86(TM) system (copyright 1986, Carnegie Mellon
 University), and the Gaussian 82(TM) system (copyright 1983,
 Carnegie Mellon University). Gaussian is a federally registered
 trademark of Gaussian, Inc.
  
 This software contains proprietary and confidential information,
 including trade secrets, belonging to Gaussian, Inc.
  
 This software is provided under written license and may be
 used, copied, transmitted, or stored only in accord with that
 written license.
  
 The following legend is applicable only to US Government
 contracts under FAR:
  
                    RESTRICTED RIGHTS LEGEND
  
 Use, reproduction and disclosure by the US Government is
 subject to restrictions as set forth in subparagraphs (a)
 and (c) of the Commercial Computer Software - Restricted
 Rights clause in FAR 52.227-19.
  
 Gaussian, Inc.
 340 Quinnipiac St., Bldg. 40, Wallingford CT 06492
  
  
 ---------------------------------------------------------------
 Warning -- This program may not be used in any manner that
 competes with the business of Gaussian, Inc. or will provide
 assistance to any competitor of Gaussian, Inc.  The licensee
 of this program is prohibited from giving any competitor of
 Gaussian, Inc. access to this program.  By using this program,
 the user acknowledges that Gaussian, Inc. is engaged in the
 business of creating and licensing software in the field of
 computational chemistry and represents and warrants to the
 licensee that it is not a competitor of Gaussian, Inc. and that
 it will not use this program in any manner prohibited above.
 ---------------------------------------------------------------
  

 Cite this work as:
 Gaussian 09, Revision D.01,
 M. J. Frisch, G. W. Trucks, H. B. Schlegel, G. E. Scuseria, 
 M. A. Robb, J. R. Cheeseman, G. Scalmani, V. Barone, B. Mennucci, 
 G. A. Petersson, H. Nakatsuji, M. Caricato, X. Li, H. P. Hratchian, 
 A. F. Izmaylov, J. Bloino, G. Zheng, J. L. Sonnenberg, M. Hada, 
 M. Ehara, K. Toyota, R. Fukuda, J. Hasegawa, M. Ishida, T. Nakajima, 
 Y. Honda, O. Kitao, H. Nakai, T. Vreven, J. A. Montgomery, Jr., 
 J. E. Peralta, F. Ogliaro, M. Bearpark, J. J. Heyd, E. Brothers, 
 K. N. Kudin, V. N. Staroverov, T. Keith, R. Kobayashi, J. Normand, 
 K. Raghavachari, A. Rendell, J. C. Burant, S. S. Iyengar, J. Tomasi, 
 M. Cossi, N. Rega, J. M. Millam, M. Klene, J. E. Knox, J. B. Cross, 
 V. Bakken, C. Adamo, J. Jaramillo, R. Gomperts, R. E. Stratmann, 
 O. Yazyev, A. J. Austin, R. Cammi, C. Pomelli, J. W. Ochterski, 
 R. L. Martin, K. Morokuma, V. G. Zakrzewski, G. A. Voth, 
 P. Salvador, J. J. Dannenberg, S. Dapprich, A. D. Daniels, 
 O. Farkas, J. B. Foresman, J. V. Ortiz, J. Cioslowski, 
 and D. J. Fox, Gaussian, Inc., Wallingford CT, 2013.
 
 ******************************************
 Gaussian 09:  ES64L-G09RevD.01 24-Apr-2013
                 6-Mar-2018 
 ******************************************
 %NProcShared=4
 Will use up to    4 processors via shared memory.
 %LindaWorkers=compute-0-6
 %chk=Isomer_03.chk
 %NProc=4
 Will use up to    4 processors via shared memory.
 %mem=4GB
 SetLPE:  input flags=" -vv -opt "Tsnet.Node.lindarsharg: ssh" "
 SetLPE:    new flags=" -vv -opt "Tsnet.Node.lindarsharg: ssh"  -nodelist 'compute-0-6.local'"
 Will use up to    1 processors via Linda.
 ----------------------------------------------------------------------
 #p PBE1PBE/Def2TZVP scf=(maxcycle=768) opt=(cartesian,maxcycle=512) fr
 eq
 ----------------------------------------------------------------------
 1/6=512,10=7,14=-1,18=10,26=3,38=1/1,3;
 2/12=2,17=6,18=5,29=2,40=1/2;
 3/5=44,7=101,11=2,16=1,25=1,30=1,71=1,74=-13/1,2,3;
 4//1;
 5/5=2,7=768,38=5/2;
 6/7=2,8=2,9=2,10=2,28=1/1;
 7/7=1,29=1/1,2,3,16;
 1/6=512,10=7,14=-1,18=10,26=3/3(2);
 2/29=1/2;
 99/12=1/99;
 2/29=1/2;
 3/5=44,7=101,11=2,16=1,25=1,30=1,71=1,74=-13/1,2,3;
 4/5=5,16=3,69=1/1;
 5/5=2,7=768,38=5/2;
 7/7=1/1,2,3,16;
 1/6=512,14=-1,18=10,26=3/3(-5);
 2/29=1/2;
 6/7=2,8=2,9=2,10=2,19=2,28=1/1;
 99/9=1,12=1/99;
 Leave Link    1 at Tue Mar  6 11:56:28 2018, MaxMem=   536870912 cpu:         0.3
 (Enter /share/apps//mg09/l101.exe)
 ---------------------
 01Final_coords.xyz_03
 ---------------------
 Symbolic Z-matrix:
 Charge =  0 Multiplicity = 1
 32                   -0.74954   1.26276  -1.98082 
 32                   -0.91222   2.10337   1.25658 
 83                    1.49643   2.06983  -0.36011 
 83                   -2.79506   0.46782  -0.12583 
 50                    1.31795   0.58684   2.35094 
 32                   -1.31597  -0.667     2.08146 
 50                   -1.28065  -1.92793  -1.12825 
 83                    0.9517   -2.11711   0.93055 
 83                    1.47251  -0.65328  -1.70444 
 
 NAtoms=      9 NQM=        9 NQMF=       0 NMMI=      0 NMMIF=      0
                NMic=       0 NMicF=      0.
                    Isotopes and Nuclear Properties:
 (Nuclear quadrupole moments (NQMom) in fm**2, nuclear magnetic moments (NMagM)
  in nuclear magnetons)

  Atom         1           2           3           4           5           6           7           8           9
 IAtWgt=          74          74         209         209         118          74         118         209         209
 AtmWgt=  73.9211788  73.9211788 208.9804000 208.9804000 117.9018000  73.9211788 117.9018000 208.9804000 208.9804000
 NucSpn=           0           0           9           9           0           0           0           9           9
 AtZEff=   0.0000000   0.0000000   0.0000000   0.0000000   0.0000000   0.0000000   0.0000000   0.0000000   0.0000000
 NQMom=    0.0000000   0.0000000 -51.6000000 -51.6000000   0.0000000   0.0000000   0.0000000 -51.6000000 -51.6000000
 NMagM=    0.0000000   0.0000000   4.1106000   4.1106000   0.0000000   0.0000000   0.0000000   4.1106000   4.1106000
 AtZNuc=  32.0000000  32.0000000  83.0000000  83.0000000  50.0000000  32.0000000  50.0000000  83.0000000  83.0000000
 Leave Link  101 at Tue Mar  6 11:56:30 2018, MaxMem=   536870912 cpu:         0.2
 (Enter /share/apps//mg09/l103.exe)

 GradGradGradGradGradGradGradGradGradGradGradGradGradGradGradGradGradGrad
 Berny optimization.
 Initialization pass.
 No Z-matrix variables, so optimization will use Cartesian coordinates.
 Trust Radius=3.00D-01 FncErr=1.00D-07 GrdErr=1.00D-06
 Number of steps in this run=    100 maximum allowed number of steps=    100.
 GradGradGradGradGradGradGradGradGradGradGradGradGradGradGradGradGradGrad

 Leave Link  103 at Tue Mar  6 11:56:35 2018, MaxMem=   536870912 cpu:         0.1
 (Enter /share/apps//mg09/l202.exe)
 ---------------------------------------------------------------------------------------------------
                            Z-MATRIX (ANGSTROMS AND DEGREES)
   CD    Cent   Atom    N1       Length/X        N2       Alpha/Y        N3        Beta/Z          J
 ---------------------------------------------------------------------------------------------------
      1      1  Ge       0  -0.749539          1.262756         -1.980820
      2      2  Ge       0  -0.912215          2.103371          1.256579
      3      3  Bi       0   1.496428          2.069828         -0.360108
      4      4  Bi       0  -2.795060          0.467819         -0.125832
      5      5  Sn       0   1.317952          0.586839          2.350938
      6      6  Ge       0  -1.315971         -0.667004          2.081464
      7      7  Sn       0  -1.280654         -1.927932         -1.128249
      8      8  Bi       0   0.951696         -2.117110          0.930550
      9      9  Bi       0   1.472507         -0.653275         -1.704437
 ---------------------------------------------------------------------------------------------------
                         Z-Matrix orientation:                         
 ---------------------------------------------------------------------
 Center     Atomic      Atomic             Coordinates (Angstroms)
 Number     Number       Type             X           Y           Z
 ---------------------------------------------------------------------
      1         32           0       -0.749539    1.262756   -1.980820
      2         32           0       -0.912215    2.103371    1.256579
      3         83           0        1.496428    2.069828   -0.360108
      4         83           0       -2.795060    0.467819   -0.125832
      5         50           0        1.317952    0.586839    2.350938
      6         32           0       -1.315971   -0.667004    2.081464
      7         50           0       -1.280654   -1.927932   -1.128249
      8         83           0        0.951696   -2.117110    0.930550
      9         83           0        1.472507   -0.653275   -1.704437
 ---------------------------------------------------------------------
                    Distance matrix (angstroms):
                    1          2          3          4          5
     1  Ge   0.000000
     2  Ge   3.348709   0.000000
     3  Bi   2.884864   2.901097   0.000000
     4  Bi   2.873510   2.851525   4.586740   0.000000
     5  Sn   4.847217   2.910522   3.095300   4.802648   0.000000
     6  Ge   4.532877   2.918635   4.621808   2.889236   2.929554
     7  Sn   3.345064   4.698357   4.927911   3.006308   5.018124
     8  Bi   4.774282   4.625248   4.415086   4.672899   3.076197
     9  Bi   2.947041   4.696127   3.036953   4.686254   4.243564
                    6          7          8          9
     6  Ge   0.000000
     7  Sn   3.448687   0.000000
     8  Bi   2.927409   3.042668   0.000000
     9  Bi   4.702004   3.088145   3.058956   0.000000
 Stoichiometry    Bi4Ge3Sn2
 Framework group  C1[X(Bi4Ge3Sn2)]
 Deg. of freedom    21
 Full point group                 C1      NOp   1
 Largest Abelian subgroup         C1      NOp   1
 Largest concise Abelian subgroup C1      NOp   1
                         Standard orientation:                         
 ---------------------------------------------------------------------
 Center     Atomic      Atomic             Coordinates (Angstroms)
 Number     Number       Type             X           Y           Z
 ---------------------------------------------------------------------
      1         32           0        0.749540   -1.262756   -1.980820
      2         32           0        0.912216   -2.103370    1.256579
      3         83           0       -1.496427   -2.069829   -0.360108
      4         83           0        2.795060   -0.467817   -0.125832
      5         50           0       -1.317952   -0.586840    2.350938
      6         32           0        1.315971    0.667005    2.081464
      7         50           0        1.280653    1.927933   -1.128249
      8         83           0       -0.951697    2.117110    0.930550
      9         83           0       -1.472507    0.653274   -1.704437
 ---------------------------------------------------------------------
 Rotational constants (GHZ):      0.0959022      0.0883764      0.0802627
 Leave Link  202 at Tue Mar  6 11:56:35 2018, MaxMem=   536870912 cpu:         0.0
 (Enter /share/apps//mg09/l301.exe)
 Standard basis: def2TZVP (5D, 7F)
 Ernie: Thresh=  0.10000D-02 Tol=  0.10000D-05 Strict=F.
 There are   519 symmetry adapted cartesian basis functions of A   symmetry.
 There are   444 symmetry adapted basis functions of A   symmetry.
   444 basis functions,   963 primitive gaussians,   519 cartesian basis functions
   116 alpha electrons      116 beta electrons
       nuclear repulsion energy      3544.2542200165 Hartrees.
 IExCor= 1009 DFT=T Ex+Corr=PBE1PBE ExCW=0 ScaHFX=  0.250000
 ScaDFX=  0.750000  0.750000  1.000000  1.000000 ScalE2=  1.000000  1.000000
 IRadAn=      0 IRanWt=     -1 IRanGd=            0 ICorTp=0 IEmpDi=  4
 NAtoms=    9 NActive=    9 NUniq=    9 SFac= 1.00D+00 NAtFMM=   60 NAOKFM=F Big=F
 Integral buffers will be    131072 words long.
 Raffenetti 2 integral format.
 Two-electron integral symmetry is turned on.
 Leave Link  301 at Tue Mar  6 11:56:39 2018, MaxMem=   536870912 cpu:         0.2
 (Enter /share/apps//mg09/l302.exe)
 NPDir=0 NMtPBC=     1 NCelOv=     1 NCel=       1 NClECP=     1 NCelD=      1
         NCelK=      1 NCelE2=     1 NClLst=     1 CellRange=     0.0.
 One-electron integrals computed using PRISM.
   1 Symmetry operations used in ECPInt.
 ECPInt:  NShTT=   10440 NPrTT=   41973 LenC2=    9677 LenP2D=   27458.
 LDataN:  DoStor=T MaxTD1= 8 Len=  415
 NBasis=   444 RedAO= T EigKep=  1.38D-03  NBF=   444
 NBsUse=   444 1.00D-06 EigRej= -1.00D+00 NBFU=   444
 Precomputing XC quadrature grid using
 IXCGrd= 4 IRadAn=           0 IRanWt=          -1 IRanGd=           0 AccXCQ= 0.00D+00.
 Defaulting to unpruned grid for atomic number  83.
 Defaulting to unpruned grid for atomic number  50.
 Defaulting to unpruned grid for atomic number  83.
 Generated NRdTot=       0 NPtTot=           0 NUsed=           0 NTot=          32
 NSgBfM=   502   502   502   502   502 MxSgAt=     9 MxSgA2=     9.
 Leave Link  302 at Tue Mar  6 11:56:51 2018, MaxMem=   536870912 cpu:        31.4
 (Enter /share/apps//mg09/l303.exe)
 DipDrv:  MaxL=1.
 Leave Link  303 at Tue Mar  6 11:57:00 2018, MaxMem=   536870912 cpu:         0.3
 (Enter /share/apps//mg09/l401.exe)
 ExpMin= 4.62D-02 ExpMax= 4.66D+05 ExpMxC= 4.50D+03 IAcc=2 IRadAn=         4 AccDes= 0.00D+00
 Harris functional with IExCor= 1009 and IRadAn=       4 diagonalized for initial guess.
 HarFok:  IExCor= 1009 AccDes= 0.00D+00 IRadAn=         4 IDoV= 1 UseB2=F ITyADJ=14
 ICtDFT=  3500011 ScaDFX=  1.000000  1.000000  1.000000  1.000000
 Defaulting to unpruned grid for atomic number  83.
 Defaulting to unpruned grid for atomic number  83.
 Defaulting to unpruned grid for atomic number  83.
 Defaulting to unpruned grid for atomic number  83.
 FoFCou: FMM=F IPFlag=           0 FMFlag=      100000 FMFlg1=           0
         NFxFlg=           0 DoJE=T BraDBF=F KetDBF=T FulRan=T
         wScrn=  0.000000 ICntrl=     500 IOpCl=  0 I1Cent=   200000004 NGrid=           0
         NMat0=    1 NMatS0=      1 NMatT0=    0 NMatD0=    1 NMtDS0=    0 NMtDT0=    0
 Petite list used in FoFCou.
 Harris En= -7518.60352882408    
 JPrj=0 DoOrth=F DoCkMO=F.
 Leave Link  401 at Tue Mar  6 11:57:13 2018, MaxMem=   536870912 cpu:        11.4
 (Enter /share/apps//mg09/l502.exe)
 Closed shell SCF:
 Using DIIS extrapolation, IDIIS=  1040.
 Integral symmetry usage will be decided dynamically.
 IVT=     1410107 IEndB=     1410107 NGot=   536870912 MDV=   536322046
 LenX=   536322046 LenY=   536052166
 Requested convergence on RMS density matrix=1.00D-08 within 768 cycles.
 Requested convergence on MAX density matrix=1.00D-06.
 Requested convergence on             energy=1.00D-06.
 No special actions if energy rises.
 Fock matrices will be formed incrementally for  20 cycles.

 Cycle   1  Pass 1  IDiag  1:
 FoFJK:  IHMeth= 1 ICntrl=       0 DoSepK=F KAlg= 0 I1Cent=   0 FoldK=F
 IRaf= 870000000 NMat=   1 IRICut=       1 DoRegI=T DoRafI=F ISym2E= 0.
 FoFCou: FMM=F IPFlag=           0 FMFlag=      100000 FMFlg1=           0
         NFxFlg=           0 DoJE=F BraDBF=F KetDBF=F FulRan=T
         wScrn=  0.000000 ICntrl=       0 IOpCl=  0 I1Cent=           0 NGrid=           0
         NMat0=    1 NMatS0=      1 NMatT0=    0 NMatD0=    1 NMtDS0=    0 NMtDT0=    0
 Symmetry not used in FoFCou.
 Defaulting to unpruned grid for atomic number  83.
 Defaulting to unpruned grid for atomic number  83.
 Defaulting to unpruned grid for atomic number  83.
 Defaulting to unpruned grid for atomic number  83.
 E= -7517.26992395786    
 DIIS: error= 2.49D-02 at cycle   1 NSaved=   1.
 NSaved= 1 IEnMin= 1 EnMin= -7517.26992395786     IErMin= 1 ErrMin= 2.49D-02
 ErrMax= 2.49D-02  0.00D+00 EMaxC= 1.00D-01 BMatC= 1.45D+00 BMatP= 1.45D+00
 IDIUse=3 WtCom= 7.51D-01 WtEn= 2.49D-01
 Coeff-Com:  0.100D+01
 Coeff-En:   0.100D+01
 Coeff:      0.100D+01
 Gap=     0.134 Goal=   None    Shift=    0.000
 GapD=    0.134 DampG=1.000 DampE=0.500 DampFc=0.5000 IDamp=-1.
 Damping current iteration by 5.00D-01
 RMSDP=4.75D-03 MaxDP=2.07D-01              OVMax= 4.93D-01

 Cycle   2  Pass 1  IDiag  1:
 RMSU=  2.37D-03    CP:  1.00D+00
 E= -7517.33472902041     Delta-E=       -0.064805062548 Rises=F Damp=T
 DIIS: error= 7.39D-03 at cycle   2 NSaved=   2.
 NSaved= 2 IEnMin= 2 EnMin= -7517.33472902041     IErMin= 2 ErrMin= 7.39D-03
 ErrMax= 7.39D-03  0.00D+00 EMaxC= 1.00D-01 BMatC= 1.89D-01 BMatP= 1.45D+00
 IDIUse=3 WtCom= 9.26D-01 WtEn= 7.39D-02
 Coeff-Com:  0.765D-01 0.923D+00
 Coeff-En:   0.445D+00 0.555D+00
 Coeff:      0.104D+00 0.896D+00
 Gap=     0.192 Goal=   None    Shift=    0.000
 RMSDP=2.88D-03 MaxDP=1.19D-01 DE=-6.48D-02 OVMax= 4.37D-01

 Cycle   3  Pass 1  IDiag  1:
 RMSU=  2.35D-03    CP:  1.01D+00  2.99D-01
 E= -7516.77483068516     Delta-E=        0.559898335250 Rises=F Damp=F
 DIIS: error= 2.80D-02 at cycle   3 NSaved=   3.
 NSaved= 3 IEnMin= 2 EnMin= -7517.33472902041     IErMin= 2 ErrMin= 7.39D-03
 ErrMax= 2.80D-02  0.00D+00 EMaxC= 1.00D-01 BMatC= 8.65D-01 BMatP= 1.89D-01
 IDIUse=2 WtCom= 0.00D+00 WtEn= 1.00D+00
 EnCoef did     8 forward-backward iterations
 Coeff-En:   0.161D+00 0.607D+00 0.232D+00
 Coeff:      0.161D+00 0.607D+00 0.232D+00
 Gap=     0.170 Goal=   None    Shift=    0.000
 RMSDP=2.73D-03 MaxDP=1.01D-01 DE= 5.60D-01 OVMax= 3.14D-01

 Cycle   4  Pass 1  IDiag  1:
 RMSU=  9.07D-04    CP:  1.01D+00  9.45D-01  1.17D-01
 E= -7517.74548705008     Delta-E=       -0.970656364923 Rises=F Damp=F
 DIIS: error= 6.16D-03 at cycle   4 NSaved=   4.
 NSaved= 4 IEnMin= 4 EnMin= -7517.74548705008     IErMin= 4 ErrMin= 6.16D-03
 ErrMax= 6.16D-03  0.00D+00 EMaxC= 1.00D-01 BMatC= 6.54D-02 BMatP= 1.89D-01
 IDIUse=3 WtCom= 9.38D-01 WtEn= 6.16D-02
 Coeff-Com:  0.767D-01 0.745D-01 0.155D+00 0.694D+00
 Coeff-En:   0.000D+00 0.000D+00 0.110D+00 0.890D+00
 Coeff:      0.720D-01 0.699D-01 0.152D+00 0.706D+00
 Gap=     0.134 Goal=   None    Shift=    0.000
 RMSDP=9.84D-04 MaxDP=5.69D-02 DE=-9.71D-01 OVMax= 9.65D-02

 Cycle   5  Pass 1  IDiag  1:
 RMSU=  6.10D-04    CP:  1.00D+00  7.17D-01  2.93D-01  6.45D-01
 E= -7517.79146389613     Delta-E=       -0.045976846042 Rises=F Damp=F
 DIIS: error= 3.62D-03 at cycle   5 NSaved=   5.
 NSaved= 5 IEnMin= 5 EnMin= -7517.79146389613     IErMin= 5 ErrMin= 3.62D-03
 ErrMax= 3.62D-03  0.00D+00 EMaxC= 1.00D-01 BMatC= 2.51D-02 BMatP= 6.54D-02
 IDIUse=3 WtCom= 9.64D-01 WtEn= 3.62D-02
 Coeff-Com:  0.638D-01-0.122D+00 0.275D-01 0.543D+00 0.488D+00
 Coeff-En:   0.000D+00 0.000D+00 0.000D+00 0.313D+00 0.687D+00
 Coeff:      0.615D-01-0.118D+00 0.265D-01 0.534D+00 0.495D+00
 Gap=     0.126 Goal=   None    Shift=    0.000
 RMSDP=4.18D-04 MaxDP=1.87D-02 DE=-4.60D-02 OVMax= 4.37D-02

 Cycle   6  Pass 1  IDiag  1:
 RMSU=  1.26D-04    CP:  1.00D+00  7.30D-01  1.99D-01  8.31D-01  5.40D-01
 E= -7517.81748016632     Delta-E=       -0.026016270192 Rises=F Damp=F
 DIIS: error= 4.83D-04 at cycle   6 NSaved=   6.
 NSaved= 6 IEnMin= 6 EnMin= -7517.81748016632     IErMin= 6 ErrMin= 4.83D-04
 ErrMax= 4.83D-04  0.00D+00 EMaxC= 1.00D-01 BMatC= 7.29D-04 BMatP= 2.51D-02
 IDIUse=3 WtCom= 9.95D-01 WtEn= 4.83D-03
 Coeff-Com:  0.256D-01-0.584D-01 0.502D-02 0.203D+00 0.245D+00 0.580D+00
 Coeff-En:   0.000D+00 0.000D+00 0.000D+00 0.000D+00 0.000D+00 0.100D+01
 Coeff:      0.255D-01-0.581D-01 0.499D-02 0.202D+00 0.244D+00 0.582D+00
 Gap=     0.125 Goal=   None    Shift=    0.000
 RMSDP=1.03D-04 MaxDP=6.46D-03 DE=-2.60D-02 OVMax= 1.13D-02

 Cycle   7  Pass 1  IDiag  1:
 RMSU=  7.04D-05    CP:  1.00D+00  7.31D-01  2.19D-01  8.45D-01  5.72D-01
                    CP:  5.76D-01
 E= -7517.81798933167     Delta-E=       -0.000509165355 Rises=F Damp=F
 DIIS: error= 4.72D-04 at cycle   7 NSaved=   7.
 NSaved= 7 IEnMin= 7 EnMin= -7517.81798933167     IErMin= 7 ErrMin= 4.72D-04
 ErrMax= 4.72D-04  0.00D+00 EMaxC= 1.00D-01 BMatC= 1.73D-04 BMatP= 7.29D-04
 IDIUse=3 WtCom= 9.95D-01 WtEn= 4.72D-03
 Coeff-Com:  0.125D-01-0.292D-01 0.149D-02 0.934D-01 0.119D+00 0.379D+00
 Coeff-Com:  0.424D+00
 Coeff-En:   0.000D+00 0.000D+00 0.000D+00 0.000D+00 0.000D+00 0.244D+00
 Coeff-En:   0.756D+00
 Coeff:      0.125D-01-0.291D-01 0.148D-02 0.930D-01 0.119D+00 0.378D+00
 Coeff:      0.425D+00
 Gap=     0.125 Goal=   None    Shift=    0.000
 RMSDP=5.20D-05 MaxDP=2.85D-03 DE=-5.09D-04 OVMax= 6.31D-03

 Cycle   8  Pass 1  IDiag  1:
 RMSU=  3.35D-05    CP:  1.00D+00  7.31D-01  2.19D-01  8.43D-01  5.74D-01
                    CP:  7.24D-01  5.03D-01
 E= -7517.81812845841     Delta-E=       -0.000139126732 Rises=F Damp=F
 DIIS: error= 2.93D-04 at cycle   8 NSaved=   8.
 NSaved= 8 IEnMin= 8 EnMin= -7517.81812845841     IErMin= 8 ErrMin= 2.93D-04
 ErrMax= 2.93D-04  0.00D+00 EMaxC= 1.00D-01 BMatC= 5.81D-05 BMatP= 1.73D-04
 IDIUse=3 WtCom= 9.97D-01 WtEn= 2.93D-03
 Coeff-Com:  0.497D-02-0.116D-01-0.387D-04 0.338D-01 0.440D-01 0.179D+00
 Coeff-Com:  0.347D+00 0.403D+00
 Coeff-En:   0.000D+00 0.000D+00 0.000D+00 0.000D+00 0.000D+00 0.000D+00
 Coeff-En:   0.315D+00 0.685D+00
 Coeff:      0.496D-02-0.116D-01-0.386D-04 0.337D-01 0.439D-01 0.178D+00
 Coeff:      0.347D+00 0.404D+00
 Gap=     0.125 Goal=   None    Shift=    0.000
 RMSDP=2.70D-05 MaxDP=1.41D-03 DE=-1.39D-04 OVMax= 3.07D-03

 Cycle   9  Pass 1  IDiag  1:
 RMSU=  1.36D-05    CP:  1.00D+00  7.31D-01  2.17D-01  8.43D-01  5.72D-01
                    CP:  7.25D-01  6.39D-01  3.78D-01
 E= -7517.81819941814     Delta-E=       -0.000070959737 Rises=F Damp=F
 DIIS: error= 7.71D-05 at cycle   9 NSaved=   9.
 NSaved= 9 IEnMin= 9 EnMin= -7517.81819941814     IErMin= 9 ErrMin= 7.71D-05
 ErrMax= 7.71D-05  0.00D+00 EMaxC= 1.00D-01 BMatC= 9.56D-06 BMatP= 5.81D-05
 IDIUse=1 WtCom= 1.00D+00 WtEn= 0.00D+00
 Coeff-Com:  0.607D-03-0.133D-02-0.604D-03 0.105D-02 0.246D-02 0.433D-01
 Coeff-Com:  0.163D+00 0.312D+00 0.479D+00
 Coeff:      0.607D-03-0.133D-02-0.604D-03 0.105D-02 0.246D-02 0.433D-01
 Coeff:      0.163D+00 0.312D+00 0.479D+00
 Gap=     0.125 Goal=   None    Shift=    0.000
 RMSDP=9.28D-06 MaxDP=6.06D-04 DE=-7.10D-05 OVMax= 1.07D-03

 Cycle  10  Pass 1  IDiag  1:
 RMSU=  3.19D-06    CP:  1.00D+00  7.31D-01  2.17D-01  8.44D-01  5.74D-01
                    CP:  7.22D-01  6.63D-01  5.54D-01  5.70D-01
 E= -7517.81821053755     Delta-E=       -0.000011119402 Rises=F Damp=F
 DIIS: error= 1.32D-05 at cycle  10 NSaved=  10.
 NSaved=10 IEnMin=10 EnMin= -7517.81821053755     IErMin=10 ErrMin= 1.32D-05
 ErrMax= 1.32D-05  0.00D+00 EMaxC= 1.00D-01 BMatC= 3.12D-07 BMatP= 9.56D-06
 IDIUse=1 WtCom= 1.00D+00 WtEn= 0.00D+00
 Coeff-Com:  0.135D-04-0.188D-04-0.299D-03-0.142D-02-0.143D-02 0.111D-01
 Coeff-Com:  0.581D-01 0.130D+00 0.250D+00 0.554D+00
 Coeff:      0.135D-04-0.188D-04-0.299D-03-0.142D-02-0.143D-02 0.111D-01
 Coeff:      0.581D-01 0.130D+00 0.250D+00 0.554D+00
 Gap=     0.125 Goal=   None    Shift=    0.000
 RMSDP=2.07D-06 MaxDP=9.42D-05 DE=-1.11D-05 OVMax= 2.47D-04

 Cycle  11  Pass 1  IDiag  1:
 RMSU=  1.59D-06    CP:  1.00D+00  7.31D-01  2.17D-01  8.44D-01  5.74D-01
                    CP:  7.24D-01  6.67D-01  5.57D-01  6.12D-01  6.63D-01
 E= -7517.81821069672     Delta-E=       -0.000000159172 Rises=F Damp=F
 DIIS: error= 8.63D-06 at cycle  11 NSaved=  11.
 NSaved=11 IEnMin=11 EnMin= -7517.81821069672     IErMin=11 ErrMin= 8.63D-06
 ErrMax= 8.63D-06  0.00D+00 EMaxC= 1.00D-01 BMatC= 1.26D-07 BMatP= 3.12D-07
 IDIUse=1 WtCom= 1.00D+00 WtEn= 0.00D+00
 Coeff-Com: -0.561D-04 0.112D-03-0.145D-03-0.122D-02-0.147D-02 0.443D-02
 Coeff-Com:  0.271D-01 0.653D-01 0.140D+00 0.409D+00 0.357D+00
 Coeff:     -0.561D-04 0.112D-03-0.145D-03-0.122D-02-0.147D-02 0.443D-02
 Coeff:      0.271D-01 0.653D-01 0.140D+00 0.409D+00 0.357D+00
 Gap=     0.125 Goal=   None    Shift=    0.000
 RMSDP=1.23D-06 MaxDP=4.67D-05 DE=-1.59D-07 OVMax= 1.73D-04

 Cycle  12  Pass 1  IDiag  1:
 RMSU=  7.82D-07    CP:  1.00D+00  7.31D-01  2.17D-01  8.44D-01  5.74D-01
                    CP:  7.25D-01  6.66D-01  5.57D-01  6.17D-01  7.92D-01
                    CP:  4.69D-01
 E= -7517.81821082770     Delta-E=       -0.000000130984 Rises=F Damp=F
 DIIS: error= 4.55D-06 at cycle  12 NSaved=  12.
 NSaved=12 IEnMin=12 EnMin= -7517.81821082770     IErMin=12 ErrMin= 4.55D-06
 ErrMax= 4.55D-06  0.00D+00 EMaxC= 1.00D-01 BMatC= 2.81D-08 BMatP= 1.26D-07
 IDIUse=1 WtCom= 1.00D+00 WtEn= 0.00D+00
 Coeff-Com: -0.706D-04 0.132D-03 0.816D-05-0.664D-03-0.975D-03-0.813D-03
 Coeff-Com: -0.107D-02 0.272D-02 0.204D-01 0.135D+00 0.313D+00 0.533D+00
 Coeff:     -0.706D-04 0.132D-03 0.816D-05-0.664D-03-0.975D-03-0.813D-03
 Coeff:     -0.107D-02 0.272D-02 0.204D-01 0.135D+00 0.313D+00 0.533D+00
 Gap=     0.125 Goal=   None    Shift=    0.000
 RMSDP=5.56D-07 MaxDP=2.85D-05 DE=-1.31D-07 OVMax= 6.93D-05

 Cycle  13  Pass 1  IDiag  1:
 RMSU=  3.33D-07    CP:  1.00D+00  7.31D-01  2.17D-01  8.44D-01  5.74D-01
                    CP:  7.26D-01  6.68D-01  5.59D-01  6.25D-01  8.19D-01
                    CP:  6.23D-01  6.46D-01
 E= -7517.81821086184     Delta-E=       -0.000000034139 Rises=F Damp=F
 DIIS: error= 1.30D-06 at cycle  13 NSaved=  13.
 NSaved=13 IEnMin=13 EnMin= -7517.81821086184     IErMin=13 ErrMin= 1.30D-06
 ErrMax= 1.30D-06  0.00D+00 EMaxC= 1.00D-01 BMatC= 2.63D-09 BMatP= 2.81D-08
 IDIUse=1 WtCom= 1.00D+00 WtEn= 0.00D+00
 Coeff-Com: -0.372D-04 0.695D-04 0.256D-04-0.297D-03-0.489D-03-0.109D-02
 Coeff-Com: -0.407D-02-0.695D-02-0.543D-02 0.291D-01 0.157D+00 0.332D+00
 Coeff-Com:  0.501D+00
 Coeff:     -0.372D-04 0.695D-04 0.256D-04-0.297D-03-0.489D-03-0.109D-02
 Coeff:     -0.407D-02-0.695D-02-0.543D-02 0.291D-01 0.157D+00 0.332D+00
 Coeff:      0.501D+00
 Gap=     0.125 Goal=   None    Shift=    0.000
 RMSDP=2.07D-07 MaxDP=1.74D-05 DE=-3.41D-08 OVMax= 2.87D-05

 Cycle  14  Pass 1  IDiag  1:
 RMSU=  9.83D-08    CP:  1.00D+00  7.31D-01  2.17D-01  8.44D-01  5.74D-01
                    CP:  7.27D-01  6.68D-01  5.60D-01  6.28D-01  8.19D-01
                    CP:  6.45D-01  7.63D-01  6.43D-01
 E= -7517.81821086477     Delta-E=       -0.000000002934 Rises=F Damp=F
 DIIS: error= 3.45D-07 at cycle  14 NSaved=  14.
 NSaved=14 IEnMin=14 EnMin= -7517.81821086477     IErMin=14 ErrMin= 3.45D-07
 ErrMax= 3.45D-07  0.00D+00 EMaxC= 1.00D-01 BMatC= 2.56D-10 BMatP= 2.63D-09
 IDIUse=1 WtCom= 1.00D+00 WtEn= 0.00D+00
 Coeff-Com: -0.847D-05 0.155D-04 0.113D-04-0.637D-04-0.133D-03-0.518D-03
 Coeff-Com: -0.208D-02-0.457D-02-0.645D-02-0.742D-02 0.422D-01 0.953D-01
 Coeff-Com:  0.267D+00 0.616D+00
 Coeff:     -0.847D-05 0.155D-04 0.113D-04-0.637D-04-0.133D-03-0.518D-03
 Coeff:     -0.208D-02-0.457D-02-0.645D-02-0.742D-02 0.422D-01 0.953D-01
 Coeff:      0.267D+00 0.616D+00
 Gap=     0.125 Goal=   None    Shift=    0.000
 RMSDP=6.25D-08 MaxDP=3.74D-06 DE=-2.93D-09 OVMax= 8.12D-06

 Cycle  15  Pass 1  IDiag  1:
 RMSU=  2.99D-08    CP:  1.00D+00  7.31D-01  2.17D-01  8.44D-01  5.74D-01
                    CP:  7.27D-01  6.69D-01  5.60D-01  6.28D-01  8.24D-01
                    CP:  6.58D-01  7.53D-01  7.21D-01  8.27D-01
 E= -7517.81821086541     Delta-E=       -0.000000000637 Rises=F Damp=F
 DIIS: error= 7.57D-08 at cycle  15 NSaved=  15.
 NSaved=15 IEnMin=15 EnMin= -7517.81821086541     IErMin=15 ErrMin= 7.57D-08
 ErrMax= 7.57D-08  0.00D+00 EMaxC= 1.00D-01 BMatC= 1.61D-11 BMatP= 2.56D-10
 IDIUse=1 WtCom= 1.00D+00 WtEn= 0.00D+00
 Coeff-Com:  0.264D-05-0.500D-05 0.468D-06 0.197D-04 0.157D-04-0.520D-04
 Coeff-Com: -0.333D-03-0.100D-02-0.172D-02-0.630D-02-0.174D-02 0.115D-02
 Coeff-Com:  0.494D-01 0.236D+00 0.724D+00
 Coeff:      0.264D-05-0.500D-05 0.468D-06 0.197D-04 0.157D-04-0.520D-04
 Coeff:     -0.333D-03-0.100D-02-0.172D-02-0.630D-02-0.174D-02 0.115D-02
 Coeff:      0.494D-01 0.236D+00 0.724D+00
 Gap=     0.125 Goal=   None    Shift=    0.000
 RMSDP=1.73D-08 MaxDP=9.02D-07 DE=-6.37D-10 OVMax= 2.25D-06

 Cycle  16  Pass 1  IDiag  1:
 RMSU=  1.02D-08    CP:  1.00D+00  7.31D-01  2.17D-01  8.44D-01  5.74D-01
                    CP:  7.27D-01  6.69D-01  5.60D-01  6.29D-01  8.25D-01
                    CP:  6.61D-01  7.60D-01  7.25D-01  8.87D-01  9.61D-01
 E= -7517.81821086523     Delta-E=        0.000000000184 Rises=F Damp=F
 DIIS: error= 3.79D-08 at cycle  16 NSaved=  16.
 NSaved=16 IEnMin=15 EnMin= -7517.81821086541     IErMin=16 ErrMin= 3.79D-08
 ErrMax= 3.79D-08  0.00D+00 EMaxC= 1.00D-01 BMatC= 2.83D-12 BMatP= 1.61D-11
 IDIUse=1 WtCom= 1.00D+00 WtEn= 0.00D+00
 Coeff-Com:  0.185D-05-0.362D-05-0.445D-06 0.143D-04 0.171D-04 0.928D-06
 Coeff-Com: -0.418D-04-0.202D-03-0.406D-03-0.248D-02-0.414D-02-0.596D-02
 Coeff-Com:  0.601D-02 0.776D-01 0.398D+00 0.532D+00
 Coeff:      0.185D-05-0.362D-05-0.445D-06 0.143D-04 0.171D-04 0.928D-06
 Coeff:     -0.418D-04-0.202D-03-0.406D-03-0.248D-02-0.414D-02-0.596D-02
 Coeff:      0.601D-02 0.776D-01 0.398D+00 0.532D+00
 Gap=     0.125 Goal=   None    Shift=    0.000
 RMSDP=6.77D-09 MaxDP=3.99D-07 DE= 1.84D-10 OVMax= 1.02D-06

 SCF Done:  E(RPBE1PBE) =  -7517.81821087     A.U. after   16 cycles
            NFock= 16  Conv=0.68D-08     -V/T= 2.1285
 KE= 6.661918356826D+03 PE=-2.467964183571D+04 EE= 6.955651048004D+03
 Leave Link  502 at Tue Mar  6 12:11:29 2018, MaxMem=   536870912 cpu:      3351.9
 (Enter /share/apps//mg09/l601.exe)
 Copying SCF densities to generalized density rwf, IOpCl= 0 IROHF=0.

 **********************************************************************

            Population analysis using the SCF density.

 **********************************************************************

 Orbital symmetries:
       Occupied  (A) (A) (A) (A) (A) (A) (A) (A) (A) (A) (A) (A)
                 (A) (A) (A) (A) (A) (A) (A) (A) (A) (A) (A) (A)
                 (A) (A) (A) (A) (A) (A) (A) (A) (A) (A) (A) (A)
                 (A) (A) (A) (A) (A) (A) (A) (A) (A) (A) (A) (A)
                 (A) (A) (A) (A) (A) (A) (A) (A) (A) (A) (A) (A)
                 (A) (A) (A) (A) (A) (A) (A) (A) (A) (A) (A) (A)
                 (A) (A) (A) (A) (A) (A) (A) (A) (A) (A) (A) (A)
                 (A) (A) (A) (A) (A) (A) (A) (A) (A) (A) (A) (A)
                 (A) (A) (A) (A) (A) (A) (A) (A) (A) (A) (A) (A)
                 (A) (A) (A) (A) (A) (A) (A) (A)
       Virtual   (A) (A) (A) (A) (A) (A) (A) (A) (A) (A) (A) (A)
                 (A) (A) (A) (A) (A) (A) (A) (A) (A) (A) (A) (A)
                 (A) (A) (A) (A) (A) (A) (A) (A) (A) (A) (A) (A)
                 (A) (A) (A) (A) (A) (A) (A) (A) (A) (A) (A) (A)
                 (A) (A) (A) (A) (A) (A) (A) (A) (A) (A) (A) (A)
                 (A) (A) (A) (A) (A) (A) (A) (A) (A) (A) (A) (A)
                 (A) (A) (A) (A) (A) (A) (A) (A) (A) (A) (A) (A)
                 (A) (A) (A) (A) (A) (A) (A) (A) (A) (A) (A) (A)
                 (A) (A) (A) (A) (A) (A) (A) (A) (A) (A) (A) (A)
                 (A) (A) (A) (A) (A) (A) (A) (A) (A) (A) (A) (A)
                 (A) (A) (A) (A) (A) (A) (A) (A) (A) (A) (A) (A)
                 (A) (A) (A) (A) (A) (A) (A) (A) (A) (A) (A) (A)
                 (A) (A) (A) (A) (A) (A) (A) (A) (A) (A) (A) (A)
                 (A) (A) (A) (A) (A) (A) (A) (A) (A) (A) (A) (A)
                 (A) (A) (A) (A) (A) (A) (A) (A) (A) (A) (A) (A)
                 (A) (A) (A) (A) (A) (A) (A) (A) (A) (A) (A) (A)
                 (A) (A) (A) (A) (A) (A) (A) (A) (A) (A) (A) (A)
                 (A) (A) (A) (A) (A) (A) (A) (A) (A) (A) (A) (A)
                 (A) (A) (A) (A) (A) (A) (A) (A) (A) (A) (A) (A)
                 (A) (A) (A) (A) (A) (A) (A) (A) (A) (A) (A) (A)
                 (A) (A) (A) (A) (A) (A) (A) (A) (A) (A) (A) (A)
                 (A) (A) (A) (A) (A) (A) (A) (A) (A) (A) (A) (A)
                 (A) (A) (A) (A) (A) (A) (A) (A) (A) (A) (A) (A)
                 (A) (A) (A) (A) (A) (A) (A) (A) (A) (A) (A) (A)
                 (A) (A) (A) (A) (A) (A) (A) (A) (A) (A) (A) (A)
                 (A) (A) (A) (A) (A) (A) (A) (A) (A) (A) (A) (A)
                 (A) (A) (A) (A) (A) (A) (A) (A) (A) (A) (A) (A)
                 (A) (A) (A) (A)
 The electronic state is 1-A.
 Alpha  occ. eigenvalues -- -399.10619-399.09901-399.09809 -49.92162 -49.91464
 Alpha  occ. eigenvalues --  -49.91366 -44.40244 -44.40213 -44.40200 -44.39552
 Alpha  occ. eigenvalues --  -44.39520 -44.39488 -44.39450 -44.39424 -44.39395
 Alpha  occ. eigenvalues --   -6.28656  -6.27968  -6.27864  -6.01966  -6.01250
 Alpha  occ. eigenvalues --   -6.01132  -6.01045  -5.14321  -5.13030  -4.44080
 Alpha  occ. eigenvalues --   -4.43992  -4.43942  -4.43422  -4.43339  -4.43303
 Alpha  occ. eigenvalues --   -4.43234  -4.43206  -4.43113  -3.74234  -3.74056
 Alpha  occ. eigenvalues --   -3.74013  -3.73476  -3.73467  -3.73429  -3.73371
 Alpha  occ. eigenvalues --   -3.73259  -3.73202  -3.73131  -3.73119  -3.73041
 Alpha  occ. eigenvalues --   -3.47534  -3.47429  -3.47346  -3.46251  -3.46176
 Alpha  occ. eigenvalues --   -3.46012  -1.23519  -1.23494  -1.23443  -1.23406
 Alpha  occ. eigenvalues --   -1.23369  -1.22892  -1.22864  -1.22779  -1.22762
 Alpha  occ. eigenvalues --   -1.22739  -1.22698  -1.22678  -1.22603  -1.22581
 Alpha  occ. eigenvalues --   -1.22529  -1.08230  -1.07943  -1.07866  -1.07734
 Alpha  occ. eigenvalues --   -1.07597  -1.07203  -1.07134  -1.07062  -1.07026
 Alpha  occ. eigenvalues --   -1.07008  -1.06954  -1.06947  -1.06906  -1.06866
 Alpha  occ. eigenvalues --   -1.06838  -1.06738  -1.06709  -1.06662  -1.06651
 Alpha  occ. eigenvalues --   -1.06576  -1.03683  -1.03673  -1.03588  -1.03521
 Alpha  occ. eigenvalues --   -1.03487  -1.02444  -1.02430  -1.02351  -1.02248
 Alpha  occ. eigenvalues --   -1.02182  -0.66100  -0.61675  -0.60428  -0.57113
 Alpha  occ. eigenvalues --   -0.49624  -0.45850  -0.44596  -0.42932  -0.41277
 Alpha  occ. eigenvalues --   -0.28591  -0.27402  -0.26392  -0.25428  -0.25083
 Alpha  occ. eigenvalues --   -0.24275  -0.23194  -0.23046  -0.21769  -0.21391
 Alpha  occ. eigenvalues --   -0.20346
 Alpha virt. eigenvalues --   -0.07837  -0.07604  -0.06880  -0.06435  -0.05521
 Alpha virt. eigenvalues --   -0.05199  -0.05175  -0.04642  -0.03736  -0.03602
 Alpha virt. eigenvalues --   -0.03275  -0.02717  -0.01999   0.03846   0.04381
 Alpha virt. eigenvalues --    0.04615   0.06554   0.07948   0.08204   0.09191
 Alpha virt. eigenvalues --    0.09436   0.09746   0.10109   0.10587   0.10900
 Alpha virt. eigenvalues --    0.11440   0.11718   0.11873   0.12227   0.13123
 Alpha virt. eigenvalues --    0.13802   0.14782   0.15740   0.16948   0.17342
 Alpha virt. eigenvalues --    0.18068   0.18574   0.19274   0.20065   0.20384
 Alpha virt. eigenvalues --    0.20666   0.22169   0.22686   0.23983   0.24347
 Alpha virt. eigenvalues --    0.24771   0.25537   0.25721   0.27033   0.28136
 Alpha virt. eigenvalues --    0.28872   0.30116   0.30250   0.30694   0.31067
 Alpha virt. eigenvalues --    0.31612   0.32137   0.32485   0.33400   0.34060
 Alpha virt. eigenvalues --    0.35068   0.35726   0.36440   0.36857   0.37600
 Alpha virt. eigenvalues --    0.38409   0.39349   0.40335   0.40814   0.41628
 Alpha virt. eigenvalues --    0.42137   0.42799   0.43524   0.44556   0.44714
 Alpha virt. eigenvalues --    0.45195   0.45822   0.47400   0.48026   0.48588
 Alpha virt. eigenvalues --    0.49306   0.49784   0.50754   0.50899   0.51823
 Alpha virt. eigenvalues --    0.52459   0.54370   0.55115   0.55935   0.56470
 Alpha virt. eigenvalues --    0.57284   0.57924   0.58707   0.59218   0.59423
 Alpha virt. eigenvalues --    0.60224   0.60770   0.61554   0.61955   0.63150
 Alpha virt. eigenvalues --    0.63513   0.64032   0.64653   0.65218   0.66041
 Alpha virt. eigenvalues --    0.66365   0.66793   0.67392   0.68118   0.69503
 Alpha virt. eigenvalues --    0.70057   0.71188   0.72351   0.73318   0.74079
 Alpha virt. eigenvalues --    0.74582   0.75765   0.76575   0.76786   0.78542
 Alpha virt. eigenvalues --    0.79739   0.79876   0.80372   0.81668   0.82166
 Alpha virt. eigenvalues --    0.83803   0.84180   0.84998   0.85495   0.86440
 Alpha virt. eigenvalues --    0.87004   0.87466   0.88825   0.90126   0.90298
 Alpha virt. eigenvalues --    0.91168   0.91222   0.92284   0.93141   0.93781
 Alpha virt. eigenvalues --    0.94804   0.95630   0.96245   0.96727   0.97376
 Alpha virt. eigenvalues --    0.97792   0.98300   0.99608   1.01702   1.02928
 Alpha virt. eigenvalues --    1.03219   1.04321   1.04907   1.05557   1.07962
 Alpha virt. eigenvalues --    1.08016   1.08791   1.10185   1.11144   1.12258
 Alpha virt. eigenvalues --    1.13307   1.14090   1.14872   1.15608   1.15762
 Alpha virt. eigenvalues --    1.16987   1.18249   1.18878   1.19346   1.19611
 Alpha virt. eigenvalues --    1.20451   1.20611   1.21448   1.21529   1.22050
 Alpha virt. eigenvalues --    1.22262   1.22743   1.23137   1.23484   1.24169
 Alpha virt. eigenvalues --    1.24962   1.25378   1.26108   1.27005   1.27185
 Alpha virt. eigenvalues --    1.27303   1.27987   1.28611   1.29004   1.29730
 Alpha virt. eigenvalues --    1.30270   1.30693   1.31619   1.32391   1.32875
 Alpha virt. eigenvalues --    1.33453   1.34731   1.35136   1.37254   1.37558
 Alpha virt. eigenvalues --    1.39027   1.40156   1.41816   1.42465   1.43172
 Alpha virt. eigenvalues --    1.43787   1.44513   1.45572   1.47768   1.49104
 Alpha virt. eigenvalues --    1.49396   1.49999   1.51149   1.52706   1.53726
 Alpha virt. eigenvalues --    1.55483   1.56607   1.56994   1.60025   1.60812
 Alpha virt. eigenvalues --    1.62547   1.64347   1.69991   2.04802   2.09489
 Alpha virt. eigenvalues --    2.10067   2.13143   2.14899   2.15277   2.17543
 Alpha virt. eigenvalues --    2.18008   2.18184   2.19301   2.19932   2.20121
 Alpha virt. eigenvalues --    2.21361   2.22510   2.23299   2.25277   2.25648
 Alpha virt. eigenvalues --    2.27616   2.27960   2.29813   2.30374   2.31377
 Alpha virt. eigenvalues --    2.31576   2.33542   2.37083   2.37979   2.38820
 Alpha virt. eigenvalues --    2.39579   2.39951   2.42504   2.43342   2.43924
 Alpha virt. eigenvalues --    2.46513   2.49345   2.51948   2.53812   2.55081
 Alpha virt. eigenvalues --    2.58877   2.59596   2.62181   2.63794   2.67494
 Alpha virt. eigenvalues --    2.67550   2.70413   2.72967   2.74676   2.76100
 Alpha virt. eigenvalues --    2.77576   2.78684   2.78837   2.80947   2.81733
 Alpha virt. eigenvalues --    2.82214   2.83955   2.84504   2.85831   2.95274
 Alpha virt. eigenvalues --    3.19473   3.24085   3.32803   3.35758   3.38310
 Alpha virt. eigenvalues --    3.40351   3.93304   3.94400   3.98441   4.00776
 Alpha virt. eigenvalues --    4.03649   4.04477   4.06334   4.09767   4.12152
 Alpha virt. eigenvalues --    5.15247   5.34030   5.44028  35.36940  35.40645
 Alpha virt. eigenvalues --   35.40697  35.44847  35.45290  35.46799  35.50080
 Alpha virt. eigenvalues --   35.51775  35.52734  35.54007  35.56629  35.63651
 Alpha virt. eigenvalues --   35.86642  35.97098  36.01400  36.05276  36.18591
 Alpha virt. eigenvalues --   36.21160  36.92231  36.94541  37.01925  37.03960
 Alpha virt. eigenvalues --   37.06174  37.09337 113.56970 113.58210 120.22126
 Alpha virt. eigenvalues --  120.24471 120.24989 120.25672
          Condensed to atoms (all electrons):
               1          2          3          4          5          6
     1  Ge  31.520606   0.041064   0.168556   0.177872  -0.014958  -0.016925
     2  Ge   0.041064  31.497934   0.155901   0.173095   0.144566   0.107964
     3  Bi   0.168556   0.155901  22.377058  -0.024010   0.165207  -0.018655
     4  Bi   0.177872   0.173095  -0.024010  22.378028  -0.021581   0.159300
     5  Sn  -0.014958   0.144566   0.165207  -0.021581  21.383440   0.144889
     6  Ge  -0.016925   0.107964  -0.018655   0.159300   0.144889  31.528663
     7  Sn   0.062702  -0.014559  -0.017185   0.173228  -0.013603   0.051978
     8  Bi  -0.018236  -0.018294  -0.023689  -0.020190   0.172870   0.157013
     9  Bi   0.151725  -0.018943   0.187582  -0.021597  -0.007957  -0.019094
               7          8          9
     1  Ge   0.062702  -0.018236   0.151725
     2  Ge  -0.014559  -0.018294  -0.018943
     3  Bi  -0.017185  -0.023689   0.187582
     4  Bi   0.173228  -0.020190  -0.021597
     5  Sn  -0.013603   0.172870  -0.007957
     6  Ge   0.051978   0.157013  -0.019094
     7  Sn  21.359568   0.157399   0.142831
     8  Bi   0.157399  22.414604   0.182254
     9  Bi   0.142831   0.182254  22.363066
 Mulliken charges:
               1
     1  Ge  -0.072404
     2  Ge  -0.068729
     3  Bi   0.029236
     4  Bi   0.025855
     5  Sn   0.047128
     6  Ge  -0.095132
     7  Sn   0.097642
     8  Bi  -0.003730
     9  Bi   0.040135
 Sum of Mulliken charges =   0.00000
 Mulliken charges with hydrogens summed into heavy atoms:
               1
     1  Ge  -0.072404
     2  Ge  -0.068729
     3  Bi   0.029236
     4  Bi   0.025855
     5  Sn   0.047128
     6  Ge  -0.095132
     7  Sn   0.097642
     8  Bi  -0.003730
     9  Bi   0.040135
 Electronic spatial extent (au):  <R**2>=           5997.0101
 Charge=              0.0000 electrons
 Dipole moment (field-independent basis, Debye):
    X=             -0.4681    Y=              0.6969    Z=             -0.9505  Tot=              1.2682
 Quadrupole moment (field-independent basis, Debye-Ang):
   XX=           -214.2398   YY=           -218.3002   ZZ=           -221.0026
   XY=              0.7170   XZ=             -0.6596   YZ=             -0.8513
 Traceless Quadrupole moment (field-independent basis, Debye-Ang):
   XX=              3.6078   YY=             -0.4527   ZZ=             -3.1551
   XY=              0.7170   XZ=             -0.6596   YZ=             -0.8513
 Octapole moment (field-independent basis, Debye-Ang**2):
  XXX=            -45.2071  YYY=             25.4533  ZZZ=            -56.5122  XYY=            -25.6687
  XXY=              6.3964  XXZ=            -24.8164  XZZ=            -23.8687  YZZ=             12.0439
  YYZ=            -17.2491  XYZ=             -0.8340
 Hexadecapole moment (field-independent basis, Debye-Ang**3):
 XXXX=          -3416.1461 YYYY=          -3287.7475 ZZZZ=          -3122.1071 XXXY=            -31.5761
 XXXZ=             49.8467 YYYX=            -14.3225 YYYZ=             50.6967 ZZZX=             53.5185
 ZZZY=             52.1665 XXYY=          -1110.1759 XXZZ=          -1087.7258 YYZZ=          -1064.1074
 XXYZ=             12.5829 YYXZ=              7.6673 ZZXY=            -18.6971
 N-N= 3.544254220017D+03 E-N=-2.467964185969D+04  KE= 6.661918356826D+03
 No NMR shielding tensors so no spin-rotation constants.
 Leave Link  601 at Tue Mar  6 12:11:33 2018, MaxMem=   536870912 cpu:         2.5
 (Enter /share/apps//mg09/l701.exe)
 Compute integral first derivatives.
 ... and contract with generalized density number  0.
   1 Symmetry operations used in ECPInt.
 ECPInt:  NShTT=   10440 NPrTT=   41973 LenC2=    9677 LenP2D=   27458.
 LDataN:  DoStor=T MaxTD1= 9 Len=  602
 Leave Link  701 at Tue Mar  6 12:11:55 2018, MaxMem=   536870912 cpu:        78.5
 (Enter /share/apps//mg09/l702.exe)
 L702 exits ... SP integral derivatives will be done elsewhere.
 Leave Link  702 at Tue Mar  6 12:11:57 2018, MaxMem=   536870912 cpu:         0.1
 (Enter /share/apps//mg09/l703.exe)
 Compute integral first derivatives, UseDBF=F ICtDFT=           0.
 Integral derivatives from FoFJK, PRISM(SPDF).
 Calling FoFJK, ICntrl=      2127 FMM=F ISym2X=0 I1Cent= 0 IOpClX= 0 NMat=1 NMatS=1 NMatT=0.
 FoFJK:  IHMeth= 1 ICntrl=    2127 DoSepK=F KAlg= 0 I1Cent=   0 FoldK=F
 IRaf=         0 NMat=   1 IRICut=       1 DoRegI=T DoRafI=F ISym2E= 0.
 FoFCou: FMM=F IPFlag=           0 FMFlag=      100000 FMFlg1=         800
         NFxFlg=           0 DoJE=F BraDBF=F KetDBF=F FulRan=T
         wScrn=  0.000000 ICntrl=    2127 IOpCl=  0 I1Cent=           0 NGrid=           0
         NMat0=    1 NMatS0=      1 NMatT0=    0 NMatD0=    1 NMtDS0=    0 NMtDT0=    0
 Symmetry not used in FoFCou.
 Defaulting to unpruned grid for atomic number  83.
 Defaulting to unpruned grid for atomic number  83.
 Defaulting to unpruned grid for atomic number  83.
 Defaulting to unpruned grid for atomic number  83.
 Leave Link  703 at Tue Mar  6 12:16:22 2018, MaxMem=   536870912 cpu:      1038.5
 (Enter /share/apps//mg09/l716.exe)
 Dipole        =-1.84177493D-01 2.74173040D-01-3.73971734D-01
 ***** Axes restored to original set *****
 -------------------------------------------------------------------
 Center     Atomic                   Forces (Hartrees/Bohr)
 Number     Number              X              Y              Z
 -------------------------------------------------------------------
      1       32           0.003222969   -0.005932383    0.010311838
      2       32           0.004849446   -0.013748044   -0.003505502
      3       83          -0.008031908   -0.005329885    0.001263642
      4       83           0.010997997   -0.000280565    0.001804373
      5       50          -0.011464732   -0.001104458   -0.008340544
      6       32           0.008003865    0.007593141   -0.009723587
      7       50           0.004874793    0.009112084    0.005299301
      8       83          -0.005435359    0.006770904   -0.001403874
      9       83          -0.007017072    0.002919206    0.004294353
 -------------------------------------------------------------------
 Cartesian Forces:  Max     0.013748044 RMS     0.006945459
 Force constants in Cartesian coordinates: 
                1             2             3             4             5 
      1  0.159574D+00
      2 -0.375825D-02  0.122074D+00
      3  0.106841D-01 -0.319901D-01  0.135521D+00
      4  0.484587D-02  0.182744D-02 -0.306093D-03  0.164249D+00
      5  0.194288D-02  0.382503D-03 -0.132046D-02 -0.325933D-02  0.164496D+00
      6  0.831787D-03 -0.472581D-02 -0.106168D-01 -0.149694D-03  0.174713D-01
      7 -0.562361D-01 -0.256423D-01 -0.144784D-01 -0.594270D-01 -0.150461D-01
      8 -0.256335D-02 -0.244395D-01  0.104699D-01  0.137788D-01 -0.274342D-01
      9 -0.295996D-01 -0.120198D-01 -0.420668D-01  0.226975D-01  0.393705D-02
     10 -0.543575D-01  0.174916D-02  0.573563D-02 -0.525157D-01 -0.100166D-02
     11 -0.201261D-01 -0.256007D-01  0.183805D-01 -0.345895D-01 -0.462839D-01
     12  0.346080D-01  0.914785D-02 -0.464577D-01 -0.221266D-01 -0.117273D-01
     13  0.226379D-02  0.385662D-02 -0.511530D-02 -0.431113D-01  0.295241D-02
     14  0.924473D-03  0.248957D-02 -0.254808D-02  0.262129D-01 -0.365014D-01
     15  0.641741D-03  0.164004D-02 -0.180758D-02 -0.925551D-02 -0.586836D-02
     16  0.513417D-02 -0.247292D-02  0.465604D-02 -0.251469D-01  0.809180D-02
     17  0.114895D-02 -0.162265D-03  0.124530D-02 -0.118880D-01 -0.501557D-01
     18 -0.287816D-02  0.163722D-02 -0.254316D-02  0.920299D-02 -0.393624D-03
     19 -0.138427D-01  0.196403D-02 -0.989833D-02  0.506336D-02 -0.458842D-02
     20 -0.121942D-01 -0.330576D-01 -0.282475D-02  0.223502D-02 -0.193912D-02
     21 -0.268641D-02  0.177615D-01 -0.132365D-01  0.236279D-02 -0.247286D-02
     22  0.404646D-02  0.229772D-02 -0.467588D-02  0.439441D-02  0.452262D-02
     23  0.363503D-02 -0.856854D-03  0.857593D-02  0.538470D-02 -0.424092D-02
     24 -0.139645D-02 -0.195870D-03  0.457216D-03 -0.182598D-02  0.401124D-02
     25 -0.514281D-01  0.201785D-01  0.133982D-01  0.164814D-02  0.638579D-02
     26  0.309906D-01 -0.408291D-01  0.118535D-04  0.298039D-03  0.167693D-02
     27 -0.102050D-01  0.187450D-01 -0.192501D-01 -0.599385D-03 -0.363700D-02
                6             7             8             9            10 
      6  0.109009D+00
      7  0.237363D-01  0.156612D+00
      8 -0.156721D-01  0.393665D-01  0.135071D+00
      9 -0.330304D-01 -0.801860D-02 -0.766036D-03  0.126558D+00
     10 -0.978244D-02 -0.533933D-02 -0.467217D-02  0.504558D-03  0.201327D+00
     11 -0.263587D-01 -0.554138D-03  0.102254D-02  0.239048D-02 -0.160839D-02
     12 -0.317865D-01 -0.576980D-03  0.221428D-02  0.962594D-02  0.127334D-01
     13 -0.238177D-01 -0.188167D-01 -0.149063D-01  0.126777D-01 -0.284656D-02
     14  0.151921D-01  0.557330D-03 -0.280682D-01  0.212504D-01 -0.617375D-03
     15 -0.204045D-01 -0.177886D-01  0.550021D-02 -0.453013D-01 -0.816286D-02
     16  0.617481D-02  0.142867D-02 -0.680024D-02  0.126538D-02 -0.416312D-01
     17  0.197630D-01 -0.324102D-02  0.137312D-02 -0.941848D-03  0.256389D-03
     18 -0.163024D-01  0.637127D-02  0.710823D-02  0.164913D-02 -0.111914D-03
     19 -0.154152D-02  0.224408D-02 -0.507272D-02  0.166421D-02 -0.367116D-01
     20 -0.860693D-03 -0.598318D-02 -0.124671D-02  0.222832D-02 -0.325471D-02
     21 -0.322771D-03 -0.368486D-02 -0.519240D-02  0.394299D-02 -0.458982D-02
     22  0.215710D-02  0.334144D-03 -0.556286D-03 -0.135495D-03 -0.337825D-02
     23 -0.518505D-02 -0.144150D-02 -0.591078D-02  0.427031D-02  0.562793D-02
     24  0.437977D-02  0.115440D-03  0.412406D-02  0.644746D-02 -0.272004D-02
     25  0.239145D-02 -0.207994D-01 -0.185742D-01 -0.105572D-02 -0.454707D-02
     26  0.375981D-03  0.119844D-01 -0.503677D-01 -0.203489D-01  0.352083D-02
     27 -0.925001D-03  0.143244D-01 -0.778613D-02 -0.278252D-01  0.639344D-02
               11            12            13            14            15 
     11  0.129223D+00
     12 -0.298975D-02  0.130126D+00
     13  0.157343D-02 -0.780133D-03  0.129553D+00
     14  0.924562D-02 -0.208840D-02  0.101384D-01  0.117047D+00
     15 -0.999664D-03  0.193929D-02  0.414031D-01 -0.361441D-02  0.123614D+00
     16  0.210312D-01 -0.312332D-01 -0.507385D-01 -0.219521D-01  0.816203D-02
     17 -0.286359D-01  0.156505D-01 -0.119621D-01 -0.252544D-01  0.126720D-01
     18  0.237278D-01 -0.530753D-01 -0.209573D-01 -0.197207D-02 -0.211853D-01
     19  0.313380D-01  0.876978D-02  0.998905D-03 -0.327798D-03  0.321297D-03
     20 -0.462253D-01 -0.116897D-01 -0.539810D-02  0.291385D-02 -0.425079D-02
     21 -0.145037D-01 -0.211997D-01 -0.162101D-02  0.600528D-03 -0.820430D-03
     22  0.106246D-02 -0.677262D-03 -0.177907D-01 -0.156017D-01 -0.146464D-01
     23  0.420257D-04  0.323029D-02  0.126391D-01 -0.476728D-01 -0.962573D-03
     24  0.335859D-02  0.791061D-02 -0.257578D-02 -0.225055D-01 -0.294241D-01
     25  0.187313D-02 -0.716974D-03  0.488156D-03  0.665913D-03 -0.674775D-03
     26  0.721223D-02 -0.174778D-02  0.110658D-02  0.580083D-02 -0.411648D-02
     27 -0.300550D-02  0.291715D-02  0.786500D-03 -0.431461D-02 -0.661025D-02
               16            17            18            19            20 
     16  0.159700D+00
     17 -0.195782D-02  0.129845D+00
     18 -0.961032D-02 -0.310515D-01  0.134280D+00
     19  0.336463D-02 -0.152853D-02  0.210492D-02  0.129208D+00
     20 -0.241678D-02  0.612188D-03 -0.265954D-02  0.119875D-01  0.134477D+00
     21 -0.500731D-04 -0.605597D-02 -0.908120D-02  0.154947D-01  0.180651D-01
     22 -0.523244D-01  0.326891D-01  0.109309D-01 -0.396704D-01  0.159531D-01
     23  0.632338D-02 -0.308206D-01  0.739220D-02 -0.902876D-02 -0.272157D-01
     24  0.204828D-01 -0.123673D-01 -0.325269D-01 -0.181906D-01  0.891997D-02
     25  0.213252D-03 -0.351696D-02  0.494760D-02 -0.506545D-01 -0.928755D-03
     26  0.153504D-03  0.319861D-02 -0.378866D-02 -0.247433D-01 -0.283189D-01
     27  0.152507D-03  0.108578D-02 -0.121449D-02  0.127554D-02 -0.692798D-02
               21            22            23            24            25 
     21  0.844639D-01
     22 -0.239459D-01  0.124151D+00
     23 -0.140758D-01 -0.339388D-01  0.148179D+00
     24 -0.310718D-01  0.980015D-02 -0.781934D-02  0.119182D+00
     25  0.187206D-01 -0.197625D-01  0.107989D-01 -0.368956D-02  0.144842D+00
     26  0.587350D-02 -0.642831D-02 -0.315038D-01  0.224741D-01 -0.168823D-01
     27 -0.126745D-01  0.211928D-01  0.457406D-02 -0.453541D-01 -0.333208D-01
               26            27 
     26  0.133131D+00
     27  0.126638D-02  0.110936D+00
 Leave Link  716 at Tue Mar  6 12:16:23 2018, MaxMem=   536870912 cpu:         0.1
 (Enter /share/apps//mg09/l103.exe)

 GradGradGradGradGradGradGradGradGradGradGradGradGradGradGradGradGradGrad
 Berny optimization.
 Search for a local minimum.
 Step number   1 out of a maximum of  100
 All quantities printed in internal units (Hartrees-Bohrs-Radians)
 Second derivative matrix not updated -- first step.
 ITU=  0
     Eigenvalues ---    0.06217   0.07292   0.09250   0.10624   0.11231
     Eigenvalues ---    0.11562   0.12707   0.13161   0.13251   0.15474
     Eigenvalues ---    0.16255   0.18836   0.20780   0.21035   0.21397
     Eigenvalues ---    0.22342   0.24459   0.25485   0.26334   0.27253
     Eigenvalues ---    0.29688
 RFO step:  Lambda=-8.12635631D-03 EMin= 6.21687888D-02
 Linear search not attempted -- first point.
 TrRot=  0.001568 -0.001482 -0.000719 -0.311113  0.000064  0.311119
 MatCor failed.
 Variable       Old X    -DE/DX   Delta X   Delta X   Delta X     New X
                                 (Linear)    (Quad)   (Total)
    X1       -1.41642   0.00322   0.00000   0.01143   0.01276  -1.40366
    Y1        2.38626  -0.00593   0.00000  -0.02562  -0.02704   2.35922
    Z1       -3.74321   0.01031   0.00000   0.07316   0.07258  -3.67063
    X2       -1.72384   0.00485   0.00000   0.02373   0.02542  -1.69842
    Y2        3.97480  -0.01375   0.00000  -0.07475  -0.07629   3.89851
    Z2        2.37459  -0.00351   0.00000  -0.03607  -0.03661   2.33798
    X3        2.82784  -0.00803   0.00000  -0.03974  -0.03823   2.78960
    Y3        3.91141  -0.00533   0.00000  -0.04608  -0.04753   3.86388
    Z3       -0.68051   0.00126   0.00000   0.01329   0.01248  -0.66803
    X4       -5.28190   0.01100   0.00000   0.06120   0.06275  -5.21914
    Y4        0.88405  -0.00028   0.00000  -0.00320  -0.00471   0.87934
    Z4       -0.23779   0.00180   0.00000   0.00847   0.00809  -0.22970
    X5        2.49057  -0.01146   0.00000  -0.06817  -0.06634   2.42422
    Y5        1.10896  -0.00110   0.00000  -0.00987  -0.01142   1.09754
    Z5        4.44263  -0.00834   0.00000  -0.06160  -0.06245   4.38018
    X6       -2.48682   0.00800   0.00000   0.03894   0.04075  -2.44608
    Y6       -1.26045   0.00759   0.00000   0.03228   0.03071  -1.22975
    Z6        3.93340  -0.00972   0.00000  -0.07232  -0.07292   3.86048
    X7       -2.42009   0.00487   0.00000   0.02503   0.02650  -2.39359
    Y7       -3.64326   0.00911   0.00000   0.06354   0.06208  -3.58118
    Z7       -2.13208   0.00530   0.00000   0.05686   0.05622  -2.07586
    X8        1.79844  -0.00544   0.00000  -0.02411  -0.02241   1.77603
    Y8       -4.00076   0.00677   0.00000   0.05768   0.05617  -3.94458
    Z8        1.75848  -0.00140   0.00000  -0.01623  -0.01713   1.74135
    X9        2.78263  -0.00702   0.00000  -0.04257  -0.04119   2.74145
    Y9       -1.23451   0.00292   0.00000   0.01943   0.01803  -1.21648
    Z9       -3.22092   0.00429   0.00000   0.04066   0.03975  -3.18117
         Item               Value     Threshold  Converged?
 Maximum Force            0.013748     0.000450     NO 
 RMS     Force            0.006945     0.000300     NO 
 Maximum Displacement     0.076288     0.001800     NO 
 RMS     Displacement     0.044510     0.001200     NO 
 Predicted change in Energy=-4.280706D-03
 Lowest energy point so far.  Saving SCF results.
 GradGradGradGradGradGradGradGradGradGradGradGradGradGradGradGradGradGrad

 Leave Link  103 at Tue Mar  6 12:16:24 2018, MaxMem=   536870912 cpu:         2.0
 (Enter /share/apps//mg09/l202.exe)
                          Input orientation:                          
 ---------------------------------------------------------------------
 Center     Atomic      Atomic             Coordinates (Angstroms)
 Number     Number       Type             X           Y           Z
 ---------------------------------------------------------------------
      1         32           0       -0.742785    1.248447   -1.942414
      2         32           0       -0.898764    2.063001    1.237205
      3         83           0        1.476195    2.044678   -0.353504
      4         83           0       -2.761852    0.465324   -0.121553
      5         50           0        1.282844    0.580795    2.317892
      6         32           0       -1.294409   -0.650755    2.042879
      7         50           0       -1.266632   -1.895080   -1.098498
      8         83           0        0.939835   -2.087384    0.921484
      9         83           0        1.450712   -0.643734   -1.683404
 ---------------------------------------------------------------------
                    Distance matrix (angstroms):
                    1          2          3          4          5
     1  Ge   0.000000
     2  Ge   3.286001   0.000000
     3  Bi   2.842972   2.858517   0.000000
     4  Bi   2.829390   2.805332   4.528709   0.000000
     5  Sn   4.764361   2.850304   3.052326   4.724806   0.000000
     6  Ge   4.449024   2.858342   4.547994   2.843200   2.869596
     7  Sn   3.296722   4.610558   4.857964   2.960003   4.929656
     8  Bi   4.707535   4.550365   4.357432   4.615922   3.030972
     9  Bi   2.908412   4.623463   2.999473   4.627643   4.187842
                    6          7          8          9
     6  Ge   0.000000
     7  Sn   3.378959   0.000000
     8  Bi   2.883275   2.997633   0.000000
     9  Bi   4.628274   3.048268   3.021682   0.000000
 Stoichiometry    Bi4Ge3Sn2
 Framework group  C1[X(Bi4Ge3Sn2)]
 Deg. of freedom    21
 Full point group                 C1      NOp   1
 RotChk:  IX=0 Diff= 1.67D-02
 Largest Abelian subgroup         C1      NOp   1
 Largest concise Abelian subgroup C1      NOp   1
                         Standard orientation:                         
 ---------------------------------------------------------------------
 Center     Atomic      Atomic             Coordinates (Angstroms)
 Number     Number       Type             X           Y           Z
 ---------------------------------------------------------------------
      1         32           0        0.738900   -1.254575   -1.939696
      2         32           0        0.918495   -2.045254    1.244700
      3         83           0       -1.465208   -2.056289   -0.332945
      4         83           0        2.761872   -0.443200   -0.135616
      5         50           0       -1.268410   -0.571991    2.326909
      6         32           0        1.297827    0.677097    2.028938
      7         50           0        1.243360    1.898769   -1.120969
      8         83           0       -0.953419    2.088701    0.909769
      9         83           0       -1.467518    0.622698   -1.681968
 ---------------------------------------------------------------------
 Rotational constants (GHZ):      0.0988176      0.0909662      0.0825353
 Leave Link  202 at Tue Mar  6 12:16:26 2018, MaxMem=   536870912 cpu:         0.0
 (Enter /share/apps//mg09/l301.exe)
 Standard basis: def2TZVP (5D, 7F)
 Ernie: Thresh=  0.10000D-02 Tol=  0.10000D-05 Strict=F.
 There are   519 symmetry adapted cartesian basis functions of A   symmetry.
 There are   444 symmetry adapted basis functions of A   symmetry.
   444 basis functions,   963 primitive gaussians,   519 cartesian basis functions
   116 alpha electrons      116 beta electrons
       nuclear repulsion energy      3601.6613009196 Hartrees.
 IExCor= 1009 DFT=T Ex+Corr=PBE1PBE ExCW=0 ScaHFX=  0.250000
 ScaDFX=  0.750000  0.750000  1.000000  1.000000 ScalE2=  1.000000  1.000000
 IRadAn=      0 IRanWt=     -1 IRanGd=            0 ICorTp=0 IEmpDi=  4
 NAtoms=    9 NActive=    9 NUniq=    9 SFac= 1.00D+00 NAtFMM=   60 NAOKFM=F Big=F
 Integral buffers will be    131072 words long.
 Raffenetti 2 integral format.
 Two-electron integral symmetry is turned on.
 Leave Link  301 at Tue Mar  6 12:16:26 2018, MaxMem=   536870912 cpu:         0.2
 (Enter /share/apps//mg09/l302.exe)
 NPDir=0 NMtPBC=     1 NCelOv=     1 NCel=       1 NClECP=     1 NCelD=      1
         NCelK=      1 NCelE2=     1 NClLst=     1 CellRange=     0.0.
 One-electron integrals computed using PRISM.
   1 Symmetry operations used in ECPInt.
 ECPInt:  NShTT=   10440 NPrTT=   41973 LenC2=    9706 LenP2D=   27637.
 LDataN:  DoStor=T MaxTD1= 8 Len=  415
 NBasis=   444 RedAO= T EigKep=  1.21D-03  NBF=   444
 NBsUse=   444 1.00D-06 EigRej= -1.00D+00 NBFU=   444
 Precomputing XC quadrature grid using
 IXCGrd= 4 IRadAn=           0 IRanWt=          -1 IRanGd=           0 AccXCQ= 0.00D+00.
 Defaulting to unpruned grid for atomic number  50.
 Defaulting to unpruned grid for atomic number  83.
 Defaulting to unpruned grid for atomic number  83.
 Generated NRdTot=       0 NPtTot=           0 NUsed=           0 NTot=          32
 NSgBfM=   500   500   500   501   501 MxSgAt=     9 MxSgA2=     9.
 Leave Link  302 at Tue Mar  6 12:16:36 2018, MaxMem=   536870912 cpu:        36.2
 (Enter /share/apps//mg09/l303.exe)
 DipDrv:  MaxL=1.
 Leave Link  303 at Tue Mar  6 12:16:37 2018, MaxMem=   536870912 cpu:         0.3
 (Enter /share/apps//mg09/l401.exe)
 Initial guess from the checkpoint file:  "Isomer_03.chk"
 B after Tr=     0.000000    0.000000    0.000000
         Rot=    0.999983    0.003425   -0.002710   -0.003783 Ang=   0.66 deg.
 Guess basis will be translated and rotated to current coordinates.
 JPrj=2 DoOrth=T DoCkMO=T.
 Generating alternative initial guess.
 ExpMin= 4.62D-02 ExpMax= 4.66D+05 ExpMxC= 4.50D+03 IAcc=2 IRadAn=         4 AccDes= 0.00D+00
 Harris functional with IExCor= 1009 and IRadAn=       4 diagonalized for initial guess.
 HarFok:  IExCor= 1009 AccDes= 0.00D+00 IRadAn=         4 IDoV= 1 UseB2=F ITyADJ=14
 ICtDFT=  3500011 ScaDFX=  1.000000  1.000000  1.000000  1.000000
 Defaulting to unpruned grid for atomic number  83.
 Defaulting to unpruned grid for atomic number  83.
 Defaulting to unpruned grid for atomic number  83.
 Defaulting to unpruned grid for atomic number  83.
 FoFCou: FMM=F IPFlag=           0 FMFlag=      100000 FMFlg1=           0
         NFxFlg=           0 DoJE=T BraDBF=F KetDBF=T FulRan=T
         wScrn=  0.000000 ICntrl=     500 IOpCl=  0 I1Cent=   200000004 NGrid=           0
         NMat0=    1 NMatS0=      1 NMatT0=    0 NMatD0=    1 NMtDS0=    0 NMtDT0=    0
 Petite list used in FoFCou.
 Harris En= -7518.61458794771    
 Leave Link  401 at Tue Mar  6 12:16:41 2018, MaxMem=   536870912 cpu:        14.1
 (Enter /share/apps//mg09/l502.exe)
 Closed shell SCF:
 Using DIIS extrapolation, IDIIS=  1040.
 Integral symmetry usage will be decided dynamically.
 IVT=     1410107 IEndB=     1410107 NGot=   536870912 MDV=   536322046
 LenX=   536322046 LenY=   536052166
 Requested convergence on RMS density matrix=1.00D-08 within 768 cycles.
 Requested convergence on MAX density matrix=1.00D-06.
 Requested convergence on             energy=1.00D-06.
 No special actions if energy rises.
 Fock matrices will be formed incrementally for  20 cycles.

 Cycle   1  Pass 1  IDiag  1:
 FoFJK:  IHMeth= 1 ICntrl=       0 DoSepK=F KAlg= 0 I1Cent=   0 FoldK=F
 IRaf= 880000000 NMat=   1 IRICut=       1 DoRegI=T DoRafI=F ISym2E= 0.
 FoFCou: FMM=F IPFlag=           0 FMFlag=      100000 FMFlg1=           0
         NFxFlg=           0 DoJE=F BraDBF=F KetDBF=F FulRan=T
         wScrn=  0.000000 ICntrl=       0 IOpCl=  0 I1Cent=           0 NGrid=           0
         NMat0=    1 NMatS0=      1 NMatT0=    0 NMatD0=    1 NMtDS0=    0 NMtDT0=    0
 Symmetry not used in FoFCou.
 Defaulting to unpruned grid for atomic number  83.
 Defaulting to unpruned grid for atomic number  83.
 Defaulting to unpruned grid for atomic number  83.
 Defaulting to unpruned grid for atomic number  83.
 E= -7517.82253222971    
 DIIS: error= 5.35D-03 at cycle   1 NSaved=   1.
 NSaved= 1 IEnMin= 1 EnMin= -7517.82253222971     IErMin= 1 ErrMin= 5.35D-03
 ErrMax= 5.35D-03  0.00D+00 EMaxC= 1.00D-01 BMatC= 9.00D-03 BMatP= 9.00D-03
 IDIUse=3 WtCom= 9.46D-01 WtEn= 5.35D-02
 Coeff-Com:  0.100D+01
 Coeff-En:   0.100D+01
 Coeff:      0.100D+01
 Gap=     6.789 Goal=   None    Shift=    0.000
 GapD=    6.789 DampG=2.000 DampE=1.000 DampFc=2.0000 IDamp=-1.
 RMSDP=1.89D-04 MaxDP=4.41D-03              OVMax= 2.14D-02

 Cycle   2  Pass 1  IDiag  1:
 RMSU=  1.89D-04    CP:  1.00D+00
 E= -7517.82259018269     Delta-E=       -0.000057952979 Rises=F Damp=F
 DIIS: error= 1.11D-03 at cycle   2 NSaved=   2.
 NSaved= 2 IEnMin= 2 EnMin= -7517.82259018269     IErMin= 2 ErrMin= 1.11D-03
 ErrMax= 1.11D-03  0.00D+00 EMaxC= 1.00D-01 BMatC= 1.65D-03 BMatP= 9.00D-03
 IDIUse=3 WtCom= 9.89D-01 WtEn= 1.11D-02
 Coeff-Com:  0.193D+00 0.807D+00
 Coeff-En:   0.484D+00 0.516D+00
 Coeff:      0.196D+00 0.804D+00
 Gap=     0.127 Goal=   None    Shift=    0.000
 RMSDP=2.11D-04 MaxDP=8.45D-03 DE=-5.80D-05 OVMax= 1.64D-02

 Cycle   3  Pass 1  IDiag  1:
 RMSU=  1.94D-04    CP:  9.99D-01  5.85D-01
 E= -7517.82061941795     Delta-E=        0.001970764733 Rises=F Damp=F
 DIIS: error= 1.69D-03 at cycle   3 NSaved=   3.
 NSaved= 3 IEnMin= 2 EnMin= -7517.82259018269     IErMin= 2 ErrMin= 1.11D-03
 ErrMax= 1.69D-03  0.00D+00 EMaxC= 1.00D-01 BMatC= 3.96D-03 BMatP= 1.65D-03
 IDIUse=3 WtCom= 1.96D-01 WtEn= 8.04D-01
 Coeff-Com:  0.554D-02 0.607D+00 0.388D+00
 Coeff-En:   0.000D+00 0.666D+00 0.334D+00
 Coeff:      0.108D-02 0.654D+00 0.345D+00
 Gap=     0.129 Goal=   None    Shift=    0.000
 RMSDP=1.15D-04 MaxDP=4.77D-03 DE= 1.97D-03 OVMax= 1.09D-02

 Cycle   4  Pass 1  IDiag  1:
 RMSU=  3.79D-05    CP:  9.99D-01  8.27D-01  4.94D-01
 E= -7517.82374688394     Delta-E=       -0.003127465985 Rises=F Damp=F
 DIIS: error= 3.17D-04 at cycle   4 NSaved=   4.
 NSaved= 4 IEnMin= 4 EnMin= -7517.82374688394     IErMin= 4 ErrMin= 3.17D-04
 ErrMax= 3.17D-04  0.00D+00 EMaxC= 1.00D-01 BMatC= 1.77D-04 BMatP= 1.65D-03
 IDIUse=3 WtCom= 9.97D-01 WtEn= 3.17D-03
 Coeff-Com: -0.238D-03 0.425D+00 0.225D+00 0.351D+00
 Coeff-En:   0.000D+00 0.643D-01 0.000D+00 0.936D+00
 Coeff:     -0.237D-03 0.423D+00 0.224D+00 0.353D+00
 Gap=     0.128 Goal=   None    Shift=    0.000
 RMSDP=3.65D-05 MaxDP=1.65D-03 DE=-3.13D-03 OVMax= 3.64D-03

 Cycle   5  Pass 1  IDiag  1:
 RMSU=  1.50D-05    CP:  9.99D-01  8.81D-01  4.44D-01  2.13D-01
 E= -7517.82388456893     Delta-E=       -0.000137684996 Rises=F Damp=F
 DIIS: error= 9.41D-05 at cycle   5 NSaved=   5.
 NSaved= 5 IEnMin= 5 EnMin= -7517.82388456893     IErMin= 5 ErrMin= 9.41D-05
 ErrMax= 9.41D-05  0.00D+00 EMaxC= 1.00D-01 BMatC= 1.58D-05 BMatP= 1.77D-04
 IDIUse=1 WtCom= 1.00D+00 WtEn= 0.00D+00
 Coeff-Com: -0.932D-03 0.222D+00 0.106D+00 0.268D+00 0.405D+00
 Coeff:     -0.932D-03 0.222D+00 0.106D+00 0.268D+00 0.405D+00
 Gap=     0.128 Goal=   None    Shift=    0.000
 RMSDP=1.11D-05 MaxDP=6.23D-04 DE=-1.38D-04 OVMax= 1.17D-03

 Cycle   6  Pass 1  IDiag  1:
 RMSU=  3.73D-06    CP:  9.99D-01  8.88D-01  4.37D-01  4.28D-01  5.96D-01
 E= -7517.82390289588     Delta-E=       -0.000018326949 Rises=F Damp=F
 DIIS: error= 1.03D-05 at cycle   6 NSaved=   6.
 NSaved= 6 IEnMin= 6 EnMin= -7517.82390289588     IErMin= 6 ErrMin= 1.03D-05
 ErrMax= 1.03D-05  0.00D+00 EMaxC= 1.00D-01 BMatC= 2.79D-07 BMatP= 1.58D-05
 IDIUse=1 WtCom= 1.00D+00 WtEn= 0.00D+00
 Coeff-Com: -0.321D-03 0.455D-01 0.220D-01 0.706D-01 0.160D+00 0.703D+00
 Coeff:     -0.321D-03 0.455D-01 0.220D-01 0.706D-01 0.160D+00 0.703D+00
 Gap=     0.128 Goal=   None    Shift=    0.000
 RMSDP=2.36D-06 MaxDP=1.47D-04 DE=-1.83D-05 OVMax= 3.67D-04

 Cycle   7  Pass 1  IDiag  1:
 RMSU=  1.65D-06    CP:  9.99D-01  8.92D-01  4.41D-01  4.15D-01  6.71D-01
                    CP:  9.91D-01
 E= -7517.82390312522     Delta-E=       -0.000000229333 Rises=F Damp=F
 DIIS: error= 6.95D-06 at cycle   7 NSaved=   7.
 NSaved= 7 IEnMin= 7 EnMin= -7517.82390312522     IErMin= 7 ErrMin= 6.95D-06
 ErrMax= 6.95D-06  0.00D+00 EMaxC= 1.00D-01 BMatC= 8.53D-08 BMatP= 2.79D-07
 IDIUse=1 WtCom= 1.00D+00 WtEn= 0.00D+00
 Coeff-Com: -0.287D-04-0.124D-01-0.517D-02-0.351D-02 0.187D-01 0.403D+00
 Coeff-Com:  0.599D+00
 Coeff:     -0.287D-04-0.124D-01-0.517D-02-0.351D-02 0.187D-01 0.403D+00
 Coeff:      0.599D+00
 Gap=     0.128 Goal=   None    Shift=    0.000
 RMSDP=1.26D-06 MaxDP=7.68D-05 DE=-2.29D-07 OVMax= 1.44D-04

 Cycle   8  Pass 1  IDiag  1:
 RMSU=  6.64D-07    CP:  9.99D-01  8.93D-01  4.43D-01  4.24D-01  6.80D-01
                    CP:  1.17D+00  6.15D-01
 E= -7517.82390319431     Delta-E=       -0.000000069098 Rises=F Damp=F
 DIIS: error= 4.25D-06 at cycle   8 NSaved=   8.
 NSaved= 8 IEnMin= 8 EnMin= -7517.82390319431     IErMin= 8 ErrMin= 4.25D-06
 ErrMax= 4.25D-06  0.00D+00 EMaxC= 1.00D-01 BMatC= 3.08D-08 BMatP= 8.53D-08
 IDIUse=1 WtCom= 1.00D+00 WtEn= 0.00D+00
 Coeff-Com:  0.197D-04-0.153D-01-0.664D-02-0.111D-01-0.625D-02 0.218D+00
 Coeff-Com:  0.454D+00 0.368D+00
 Coeff:      0.197D-04-0.153D-01-0.664D-02-0.111D-01-0.625D-02 0.218D+00
 Coeff:      0.454D+00 0.368D+00
 Gap=     0.128 Goal=   None    Shift=    0.000
 RMSDP=6.07D-07 MaxDP=2.44D-05 DE=-6.91D-08 OVMax= 7.99D-05

 Cycle   9  Pass 1  IDiag  1:
 RMSU=  3.44D-07    CP:  9.99D-01  8.93D-01  4.43D-01  4.25D-01  6.89D-01
                    CP:  1.17D+00  7.37D-01  3.57D-01
 E= -7517.82390322670     Delta-E=       -0.000000032389 Rises=F Damp=F
 DIIS: error= 2.01D-06 at cycle   9 NSaved=   9.
 NSaved= 9 IEnMin= 9 EnMin= -7517.82390322670     IErMin= 9 ErrMin= 2.01D-06
 ErrMax= 2.01D-06  0.00D+00 EMaxC= 1.00D-01 BMatC= 6.38D-09 BMatP= 3.08D-08
 IDIUse=1 WtCom= 1.00D+00 WtEn= 0.00D+00
 Coeff-Com:  0.228D-04-0.998D-02-0.435D-02-0.825D-02-0.939D-02 0.931D-01
 Coeff-Com:  0.256D+00 0.303D+00 0.380D+00
 Coeff:      0.228D-04-0.998D-02-0.435D-02-0.825D-02-0.939D-02 0.931D-01
 Coeff:      0.256D+00 0.303D+00 0.380D+00
 Gap=     0.128 Goal=   None    Shift=    0.000
 RMSDP=2.23D-07 MaxDP=8.93D-06 DE=-3.24D-08 OVMax= 2.97D-05

 Cycle  10  Pass 1  IDiag  1:
 RMSU=  1.07D-07    CP:  9.99D-01  8.93D-01  4.43D-01  4.26D-01  6.92D-01
                    CP:  1.17D+00  7.53D-01  5.41D-01  6.14D-01
 E= -7517.82390323420     Delta-E=       -0.000000007498 Rises=F Damp=F
 DIIS: error= 2.15D-07 at cycle  10 NSaved=  10.
 NSaved=10 IEnMin=10 EnMin= -7517.82390323420     IErMin=10 ErrMin= 2.15D-07
 ErrMax= 2.15D-07  0.00D+00 EMaxC= 1.00D-01 BMatC= 1.37D-10 BMatP= 6.38D-09
 IDIUse=1 WtCom= 1.00D+00 WtEn= 0.00D+00
 Coeff-Com:  0.298D-05-0.353D-03-0.101D-03-0.482D-03-0.215D-02-0.889D-02
 Coeff-Com:  0.162D-04 0.385D-01 0.136D+00 0.837D+00
 Coeff:      0.298D-05-0.353D-03-0.101D-03-0.482D-03-0.215D-02-0.889D-02
 Coeff:      0.162D-04 0.385D-01 0.136D+00 0.837D+00
 Gap=     0.128 Goal=   None    Shift=    0.000
 RMSDP=6.72D-08 MaxDP=2.59D-06 DE=-7.50D-09 OVMax= 1.16D-05

 Cycle  11  Pass 1  IDiag  1:
 RMSU=  4.31D-08    CP:  9.99D-01  8.93D-01  4.44D-01  4.26D-01  6.93D-01
                    CP:  1.18D+00  7.62D-01  5.55D-01  6.95D-01  1.00D+00
 E= -7517.82390323432     Delta-E=       -0.000000000115 Rises=F Damp=F
 DIIS: error= 2.00D-07 at cycle  11 NSaved=  11.
 NSaved=11 IEnMin=11 EnMin= -7517.82390323432     IErMin=11 ErrMin= 2.00D-07
 ErrMax= 2.00D-07  0.00D+00 EMaxC= 1.00D-01 BMatC= 6.35D-11 BMatP= 1.37D-10
 IDIUse=1 WtCom= 1.00D+00 WtEn= 0.00D+00
 Coeff-Com:  0.377D-07 0.584D-03 0.290D-03 0.352D-03-0.690D-03-0.131D-01
 Coeff-Com: -0.222D-01-0.596D-03 0.574D-01 0.560D+00 0.417D+00
 Coeff:      0.377D-07 0.584D-03 0.290D-03 0.352D-03-0.690D-03-0.131D-01
 Coeff:     -0.222D-01-0.596D-03 0.574D-01 0.560D+00 0.417D+00
 Gap=     0.128 Goal=   None    Shift=    0.000
 RMSDP=3.13D-08 MaxDP=2.12D-06 DE=-1.15D-10 OVMax= 3.32D-06

 Cycle  12  Pass 1  IDiag  1:
 RMSU=  2.00D-08    CP:  9.99D-01  8.93D-01  4.44D-01  4.26D-01  6.93D-01
                    CP:  1.18D+00  7.62D-01  5.60D-01  7.12D-01  1.08D+00
                    CP:  5.39D-01
 E= -7517.82390323414     Delta-E=        0.000000000173 Rises=F Damp=F
 DIIS: error= 1.51D-07 at cycle  12 NSaved=  12.
 NSaved=12 IEnMin=11 EnMin= -7517.82390323432     IErMin=12 ErrMin= 1.51D-07
 ErrMax= 1.51D-07  0.00D+00 EMaxC= 1.00D-01 BMatC= 1.65D-11 BMatP= 6.35D-11
 IDIUse=1 WtCom= 1.00D+00 WtEn= 0.00D+00
 Coeff-Com: -0.534D-06 0.541D-03 0.255D-03 0.387D-03-0.152D-03-0.882D-02
 Coeff-Com: -0.182D-01-0.713D-02 0.222D-01 0.302D+00 0.323D+00 0.386D+00
 Coeff:     -0.534D-06 0.541D-03 0.255D-03 0.387D-03-0.152D-03-0.882D-02
 Coeff:     -0.182D-01-0.713D-02 0.222D-01 0.302D+00 0.323D+00 0.386D+00
 Gap=     0.128 Goal=   None    Shift=    0.000
 RMSDP=1.48D-08 MaxDP=7.50D-07 DE= 1.73D-10 OVMax= 2.12D-06

 Cycle  13  Pass 1  IDiag  1:
 RMSU=  8.46D-09    CP:  9.99D-01  8.93D-01  4.44D-01  4.26D-01  6.93D-01
                    CP:  1.18D+00  7.62D-01  5.61D-01  7.18D-01  1.10D+00
                    CP:  6.51D-01  4.79D-01
 E= -7517.82390323433     Delta-E=       -0.000000000189 Rises=F Damp=F
 DIIS: error= 6.61D-08 at cycle  13 NSaved=  13.
 NSaved=13 IEnMin=13 EnMin= -7517.82390323433     IErMin=13 ErrMin= 6.61D-08
 ErrMax= 6.61D-08  0.00D+00 EMaxC= 1.00D-01 BMatC= 2.80D-12 BMatP= 1.65D-11
 IDIUse=1 WtCom= 1.00D+00 WtEn= 0.00D+00
 Coeff-Com: -0.421D-06 0.265D-03 0.119D-03 0.215D-03 0.768D-04-0.328D-02
 Coeff-Com: -0.832D-02-0.584D-02-0.442D-03 0.796D-01 0.134D+00 0.304D+00
 Coeff-Com:  0.499D+00
 Coeff:     -0.421D-06 0.265D-03 0.119D-03 0.215D-03 0.768D-04-0.328D-02
 Coeff:     -0.832D-02-0.584D-02-0.442D-03 0.796D-01 0.134D+00 0.304D+00
 Coeff:      0.499D+00
 Gap=     0.128 Goal=   None    Shift=    0.000
 RMSDP=5.22D-09 MaxDP=3.29D-07 DE=-1.89D-10 OVMax= 5.18D-07

 SCF Done:  E(RPBE1PBE) =  -7517.82390323     A.U. after   13 cycles
            NFock= 13  Conv=0.52D-08     -V/T= 2.1284
 KE= 6.662137047759D+03 PE=-2.479452928872D+04 EE= 7.012907036803D+03
 Leave Link  502 at Tue Mar  6 12:28:06 2018, MaxMem=   536870912 cpu:      2700.5
 (Enter /share/apps//mg09/l701.exe)
 Compute integral first derivatives.
 ... and contract with generalized density number  0.
   1 Symmetry operations used in ECPInt.
 ECPInt:  NShTT=   10440 NPrTT=   41973 LenC2=    9706 LenP2D=   27637.
 LDataN:  DoStor=T MaxTD1= 9 Len=  602
 Leave Link  701 at Tue Mar  6 12:28:29 2018, MaxMem=   536870912 cpu:        83.2
 (Enter /share/apps//mg09/l702.exe)
 L702 exits ... SP integral derivatives will be done elsewhere.
 Leave Link  702 at Tue Mar  6 12:28:29 2018, MaxMem=   536870912 cpu:         0.1
 (Enter /share/apps//mg09/l703.exe)
 Compute integral first derivatives, UseDBF=F ICtDFT=           0.
 Integral derivatives from FoFJK, PRISM(SPDF).
 Calling FoFJK, ICntrl=      2127 FMM=F ISym2X=0 I1Cent= 0 IOpClX= 0 NMat=1 NMatS=1 NMatT=0.
 FoFJK:  IHMeth= 1 ICntrl=    2127 DoSepK=F KAlg= 0 I1Cent=   0 FoldK=F
 IRaf=         0 NMat=   1 IRICut=       1 DoRegI=T DoRafI=F ISym2E= 0.
 FoFCou: FMM=F IPFlag=           0 FMFlag=      100000 FMFlg1=         800
         NFxFlg=           0 DoJE=F BraDBF=F KetDBF=F FulRan=T
         wScrn=  0.000000 ICntrl=    2127 IOpCl=  0 I1Cent=           0 NGrid=           0
         NMat0=    1 NMatS0=      1 NMatT0=    0 NMatD0=    1 NMtDS0=    0 NMtDT0=    0
 Symmetry not used in FoFCou.
 Defaulting to unpruned grid for atomic number  83.
 Defaulting to unpruned grid for atomic number  83.
 Defaulting to unpruned grid for atomic number  83.
 Defaulting to unpruned grid for atomic number  83.
 Leave Link  703 at Tue Mar  6 12:33:37 2018, MaxMem=   536870912 cpu:      1132.9
 (Enter /share/apps//mg09/l716.exe)
 Dipole        =-2.01227283D-01 2.70306876D-01-3.91681834D-01
 ***** Axes restored to original set *****
 -------------------------------------------------------------------
 Center     Atomic                   Forces (Hartrees/Bohr)
 Number     Number              X              Y              Z
 -------------------------------------------------------------------
      1       32           0.001873943   -0.003682393    0.004837512
      2       32           0.002925342   -0.007625364   -0.000917760
      3       83          -0.003118220    0.000340341    0.000477645
      4       83           0.002160395    0.000966827    0.000865680
      5       50          -0.006093369    0.000101467   -0.002297707
      6       32           0.004640898    0.004669270   -0.004516682
      7       50           0.002137191    0.003866461    0.001363593
      8       83          -0.001967050    0.000693340    0.001296491
      9       83          -0.002559130    0.000670050   -0.001108771
 -------------------------------------------------------------------
 Cartesian Forces:  Max     0.007625364 RMS     0.003140136
 Leave Link  716 at Tue Mar  6 12:33:37 2018, MaxMem=   536870912 cpu:         0.0
 (Enter /share/apps//mg09/l103.exe)

 GradGradGradGradGradGradGradGradGradGradGradGradGradGradGradGradGradGrad
 Berny optimization.
 Search for a local minimum.
 Step number   2 out of a maximum of  100
 All quantities printed in internal units (Hartrees-Bohrs-Radians)
 Update second derivatives using D2CorN and points    1    2
 DE= -5.69D-03 DEPred=-4.28D-03 R= 1.33D+00
 TightC=F SS=  1.41D+00  RLast= 2.31D-01 DXNew= 5.0454D-01 6.9385D-01
 Trust test= 1.33D+00 RLast= 2.31D-01 DXMaxT set to 5.05D-01
 ITU=  1  0
     Eigenvalues ---    0.06018   0.07269   0.08394   0.10621   0.10734
     Eigenvalues ---    0.11563   0.12058   0.12792   0.13244   0.14099
     Eigenvalues ---    0.15607   0.18818   0.20573   0.21004   0.21397
     Eigenvalues ---    0.22320   0.24459   0.25482   0.26231   0.27262
     Eigenvalues ---    0.29681
 RFO step:  Lambda=-5.53897079D-04 EMin= 6.01806573D-02
 Quartic linear search produced a step of  0.55566.
 TrRot=  0.000406 -0.000257  0.000067 -0.000012  0.000056 -0.000012
 MatCor failed.
 Variable       Old X    -DE/DX   Delta X   Delta X   Delta X     New X
                                 (Linear)    (Quad)   (Total)
    X1       -1.40366   0.00187   0.00709   0.00322   0.01057  -1.39309
    Y1        2.35922  -0.00368  -0.01503  -0.00975  -0.02500   2.33423
    Z1       -3.67063   0.00484   0.04033   0.00317   0.04364  -3.62699
    X2       -1.69842   0.00293   0.01412   0.00669   0.02144  -1.67698
    Y2        3.89851  -0.00763  -0.04239  -0.01506  -0.05767   3.84084
    Z2        2.33798  -0.00092  -0.02034   0.00655  -0.01363   2.32435
    X3        2.78960  -0.00312  -0.02125  -0.00346  -0.02424   2.76536
    Y3        3.86388   0.00034  -0.02641   0.01699  -0.00975   3.85413
    Z3       -0.66803   0.00048   0.00693  -0.00018   0.00666  -0.66136
    X4       -5.21914   0.00216   0.03487  -0.00740   0.02789  -5.19126
    Y4        0.87934   0.00097  -0.00262   0.00900   0.00625   0.88559
    Z4       -0.22970   0.00087   0.00449   0.00276   0.00761  -0.22210
    X5        2.42422  -0.00609  -0.03686  -0.01561  -0.05180   2.37242
    Y5        1.09754   0.00010  -0.00635   0.00628  -0.00038   1.09717
    Z5        4.38018  -0.00230  -0.03470   0.01322  -0.02154   4.35864
    X6       -2.44608   0.00464   0.02264   0.00982   0.03305  -2.41303
    Y6       -1.22975   0.00467   0.01706   0.01330   0.03017  -1.19958
    Z6        3.86048  -0.00452  -0.04052  -0.00469  -0.04500   3.81548
    X7       -2.39359   0.00214   0.01472   0.00178   0.01670  -2.37688
    Y7       -3.58118   0.00387   0.03450   0.00090   0.03520  -3.54598
    Z7       -2.07586   0.00136   0.03124  -0.00805   0.02339  -2.05247
    X8        1.77603  -0.00197  -0.01245   0.00021  -0.01184   1.76419
    Y8       -3.94458   0.00069   0.03121  -0.01324   0.01767  -3.92691
    Z8        1.74135   0.00130  -0.00952   0.01348   0.00393   1.74528
    X9        2.74145  -0.00256  -0.02289   0.00092  -0.02177   2.71968
    Y9       -1.21648   0.00067   0.01002  -0.00620   0.00350  -1.21298
    Z9       -3.18117  -0.00111   0.02209  -0.02705  -0.00505  -3.18622
         Item               Value     Threshold  Converged?
 Maximum Force            0.007625     0.000450     NO 
 RMS     Force            0.003140     0.000300     NO 
 Maximum Displacement     0.057669     0.001800     NO 
[...]
     X          XX                   X X        X      XX  X                                            X                            
     X          XX                   X X        X      XX  X                                                                         
     X          XX                   X X        X      X   X                                                                         
     X           X                   X X        X      X   X                                                                         
     X           X                   X          X      X   X                                                                         
     X           X                   X          X      X   X                                                                         
     X           X                   X          X      X   X                                                                         
     X           X                   X          X      X   X                                                                         
     X           X                   X          X      X   X                                                                         
     X           X                   X          X      X   X                                                                         
     X           X                                     X                                                                             
     X                                                                                                                               
     X                                                                                                                               
     X                                                                                                                               
     X                                                                                                                               
     X                                                                                                                               
 
 ***** Axes restored to original set *****
 -------------------------------------------------------------------
 Center     Atomic                   Forces (Hartrees/Bohr)
 Number     Number              X              Y              Z
 -------------------------------------------------------------------
      1       32          -0.000005323   -0.000123028   -0.000073732
      2       32          -0.000005764    0.000002230    0.000090585
      3       83          -0.000083933    0.000081084   -0.000037619
      4       83           0.000023686    0.000010922    0.000035028
      5       50           0.000036577   -0.000024678   -0.000080544
      6       32           0.000010384    0.000022681    0.000033908
      7       50           0.000015347    0.000067572   -0.000113175
      8       83          -0.000077542   -0.000070936    0.000023413
      9       83           0.000086568    0.000034153    0.000122135
 -------------------------------------------------------------------
 Cartesian Forces:  Max     0.000123028 RMS     0.000063471
 Force constants in Cartesian coordinates: 
                1             2             3             4             5 
      1  0.730353D-01
      2 -0.332350D-03  0.350732D-01
      3  0.362108D-02 -0.138016D-01  0.518715D-01
      4 -0.429162D-03  0.185232D-02 -0.183066D-03  0.776047D-01
      5  0.265692D-02 -0.140457D-02  0.115119D-02  0.293132D-02  0.607653D-01
      6 -0.101707D-03 -0.859268D-03 -0.714938D-03  0.414231D-02  0.833337D-02
      7 -0.256499D-01 -0.118574D-01 -0.162212D-01 -0.251679D-01 -0.600984D-02
      8 -0.106221D-01 -0.449870D-02 -0.441166D-02 -0.184548D-02 -0.302326D-02
      9 -0.165938D-01 -0.467127D-02 -0.154069D-01  0.193378D-01  0.859058D-03
     10 -0.267091D-01 -0.515060D-02  0.175308D-01 -0.262030D-01 -0.158850D-01
     11 -0.657630D-02 -0.333870D-02  0.716663D-02 -0.184399D-01 -0.130344D-01
     12  0.191204D-01  0.673262D-02 -0.177486D-01 -0.172143D-01 -0.124864D-01
     13 -0.121674D-02  0.127235D-02 -0.295894D-03 -0.201504D-01  0.121404D-01
     14  0.406113D-02  0.831454D-04  0.333583D-02  0.164362D-01 -0.947099D-02
     15 -0.387294D-02 -0.281959D-02 -0.541343D-02 -0.120757D-01  0.405251D-02
     16  0.282025D-02  0.173443D-02 -0.200529D-02 -0.274948D-02  0.820071D-03
     17 -0.203158D-02 -0.396911D-02  0.149763D-02 -0.394737D-02 -0.200744D-01
     18  0.510768D-02  0.137969D-02 -0.738836D-02  0.468401D-02  0.309664D-02
     19  0.382559D-03 -0.207359D-02 -0.331305D-02  0.235086D-02  0.226767D-02
     20 -0.252296D-02 -0.736063D-02  0.180834D-02 -0.440785D-02 -0.556965D-02
     21 -0.284612D-02  0.332703D-02 -0.176868D-02 -0.298259D-03 -0.171194D-02
     22 -0.135030D-02 -0.118532D-02 -0.173840D-02 -0.385762D-02 -0.179296D-03
     23 -0.600770D-03 -0.245242D-02 -0.758762D-03  0.675379D-03 -0.520548D-02
     24 -0.470142D-02  0.576526D-02 -0.132114D-02  0.147267D-02 -0.286608D-02
     25 -0.208829D-01  0.157402D-01  0.260499D-02 -0.139790D-02  0.125781D-02
     26  0.159680D-01 -0.121322D-01  0.401240D-02  0.674535D-02 -0.298254D-02
     27  0.266767D-03  0.494713D-02 -0.210943D-02  0.134516D-03 -0.428295D-03
                6             7             8             9            10 
      6  0.368267D-01
      7  0.185759D-01  0.654304D-01
      8 -0.292920D-03  0.229462D-01  0.662555D-01
      9 -0.108390D-01 -0.563839D-02  0.762091D-02  0.619753D-01
     10 -0.159908D-01 -0.360629D-02  0.474510D-03 -0.586880D-03  0.950562D-01
     11 -0.126038D-01 -0.377475D-02 -0.121757D-02 -0.216764D-02 -0.479234D-02
     12 -0.100936D-01  0.999188D-03 -0.841964D-03  0.880900D-03  0.712763D-02
     13 -0.142807D-01 -0.368598D-02 -0.301968D-02  0.121269D-02 -0.232280D-02
     14  0.579504D-02 -0.289954D-02 -0.801238D-02  0.140036D-01 -0.663003D-03
     15 -0.441227D-02  0.127742D-02  0.125211D-01 -0.240047D-01  0.387944D-03
     16  0.398438D-02 -0.388120D-02 -0.426337D-05  0.325718D-02 -0.162510D-01
     17  0.776503D-02  0.698161D-03 -0.305322D-02  0.374433D-02  0.888538D-02
     18 -0.112938D-02  0.122206D-02  0.277051D-05 -0.331927D-02 -0.148297D-01
     19  0.293496D-02 -0.151844D-02 -0.255715D-02 -0.454260D-02 -0.162412D-01
     20 -0.269740D-02 -0.866537D-05 -0.321279D-02 -0.223278D-02  0.175235D-01
     21 -0.419070D-02 -0.132595D-02  0.254996D-02  0.161728D-03  0.666712D-02
     22  0.145398D-02  0.186603D-02 -0.407811D-02  0.120284D-02 -0.165263D-02
     23  0.117652D-02  0.306460D-02 -0.467434D-02  0.140626D-02 -0.400054D-04
     24 -0.185937D-02 -0.466776D-03  0.136969D-02 -0.343973D-03  0.258901D-03
     25 -0.718356D-03 -0.378667D-02 -0.129397D-02  0.235111D-02 -0.207015D-02
     26 -0.661656D-02 -0.215875D-02 -0.385632D-01 -0.185625D-01 -0.352407D-03
     27 -0.358743D-02  0.157770D-02 -0.185179D-01 -0.910414D-02 -0.564925D-03
               11            12            13            14            15 
     11  0.552315D-01
     12  0.560396D-02  0.582189D-01
     13 -0.894499D-03 -0.125187D-02  0.574862D-01
     14 -0.477305D-02  0.302434D-03  0.450310D-02  0.537850D-01
     15  0.593513D-03 -0.241983D-02  0.226791D-01 -0.240661D-02  0.524205D-01
     16  0.100269D-01 -0.177954D-01 -0.260669D-01 -0.144203D-01 -0.268508D-02
     17 -0.555022D-02  0.118889D-01 -0.123007D-01 -0.341189D-02  0.583470D-03
     18  0.113709D-01 -0.223592D-01 -0.714711D-02 -0.308068D-03 -0.240699D-02
     19  0.185800D-01  0.701431D-02 -0.257406D-02 -0.426587D-02 -0.318399D-03
     20 -0.268877D-01 -0.121146D-01 -0.739793D-03  0.461621D-04  0.966850D-03
     21 -0.123657D-01 -0.450459D-02 -0.697596D-03 -0.478464D-02 -0.296047D-02
     22  0.439298D-02 -0.174729D-03 -0.262610D-02 -0.186679D-02 -0.307123D-02
     23 -0.923271D-04  0.120167D-02 -0.188569D-02 -0.282692D-01 -0.129022D-01
     24  0.254102D-02 -0.572167D-03 -0.346632D-02 -0.141446D-01 -0.758306D-02
     25  0.147789D-02  0.217479D-02  0.115678D-02 -0.884946D-03 -0.232118D-02
     26 -0.337542D-03 -0.286569D-03  0.924485D-03  0.232457D-04 -0.589014D-03
     27 -0.138852D-03 -0.140181D-02  0.324763D-02 -0.179295D-02 -0.321980D-02
               16            17            18            19            20 
     16  0.695551D-01
     17 -0.580902D-02  0.465612D-01
     18  0.185486D-03 -0.151457D-01  0.518218D-01
     19 -0.706380D-03 -0.224342D-02  0.167250D-02  0.675538D-01
     20 -0.167500D-02 -0.442187D-03 -0.497622D-03 -0.135894D-02  0.544720D-01
     21  0.935148D-03 -0.178427D-02 -0.353857D-02  0.942803D-02  0.144537D-01
     22 -0.192953D-01  0.173968D-01  0.805081D-02 -0.210404D-01  0.373273D-02
     23  0.143677D-01 -0.114627D-01 -0.328691D-02  0.290844D-02 -0.374879D-02
     24  0.109649D-01 -0.559538D-02 -0.632369D-02 -0.203351D-01  0.356338D-03
     25 -0.342512D-02 -0.648329D-03  0.105431D-02 -0.282067D-01 -0.105430D-01
     26 -0.504054D-02  0.140255D-02  0.338833D-02 -0.112572D-01 -0.729647D-02
     27  0.315874D-02 -0.295396D-02 -0.535628D-02  0.745939D-02 -0.428966D-04
               21            22            23            24            25 
     21  0.339890D-01
     22 -0.208430D-01  0.525573D-01
     23  0.463759D-03 -0.178581D-01  0.674486D-01
     24 -0.176717D-01  0.819149D-02 -0.495437D-02  0.669795D-01
     25  0.898065D-02 -0.460104D-02 -0.631535D-03  0.808174D-02  0.632137D-01
     26 -0.147948D-03 -0.354880D-03 -0.115432D-01  0.175282D-01 -0.447407D-02
     27  0.483980D-03  0.692824D-02  0.176540D-01 -0.313044D-01 -0.222081D-01
               26            27 
     26  0.714295D-01
     27  0.127367D-02  0.555993D-01
 Leave Link  716 at Tue Mar  6 15:48:27 2018, MaxMem=   536870912 cpu:         0.1
 (Enter /share/apps//mg09/l103.exe)

 GradGradGradGradGradGradGradGradGradGradGradGradGradGradGradGradGradGrad
 Berny optimization.
 Search for a local minimum.
 Step number   1 out of a maximum of    2
 All quantities printed in internal units (Hartrees-Bohrs-Radians)
 Second derivative matrix not updated -- analytic derivatives used.
 ITU=  0
     Eigenvalues ---    0.00280   0.00934   0.02464   0.03193   0.04502
     Eigenvalues ---    0.04639   0.05632   0.05659   0.05874   0.06380
     Eigenvalues ---    0.07106   0.07548   0.08487   0.08876   0.10012
     Eigenvalues ---    0.10777   0.11712   0.12085   0.13714   0.14209
     Eigenvalues ---    0.15859
 Angle between quadratic step and forces=  10.19 degrees.
 Linear search not attempted -- first point.
 TrRot= -0.000050 -0.000616  0.000568 -1.888190 -0.000217  1.888230
 Variable       Old X    -DE/DX   Delta X   Delta X   Delta X     New X
                                 (Linear)    (Quad)   (Total)
    X1       -1.39024  -0.00001   0.00000  -0.00287  -0.00326  -1.39350
    Y1        2.27339  -0.00012   0.00000  -0.03648  -0.03790   2.23548
    Z1       -3.61291  -0.00007   0.00000  -0.02717  -0.02697  -3.63988
    X2       -1.66247  -0.00001   0.00000   0.00146   0.00142  -1.66105
    Y2        3.79857   0.00000   0.00000  -0.00339  -0.00359   3.79498
    Z2        2.33126   0.00009   0.00000   0.03332   0.03322   2.36447
    X3        2.74892  -0.00008   0.00000  -0.03243  -0.03268   2.71624
    Y3        3.88653   0.00008   0.00000   0.03105   0.03040   3.91693
    Z3       -0.67242  -0.00004   0.00000  -0.01280  -0.01323  -0.68564
    X4       -5.23676   0.00002   0.00000   0.00771   0.00761  -5.22915
    Y4        0.91038   0.00001   0.00000   0.00737   0.00650   0.91688
    Z4       -0.21238   0.00004   0.00000   0.00693   0.00766  -0.20471
    X5        2.37494   0.00004   0.00000   0.02500   0.02520   2.40014
    Y5        1.09690  -0.00002   0.00000  -0.01091  -0.01054   1.08635
    Z5        4.36344  -0.00008   0.00000  -0.03131  -0.03113   4.33231
    X6       -2.39316   0.00001   0.00000   0.00271   0.00296  -2.39020
    Y6       -1.17893   0.00002   0.00000   0.01223   0.01230  -1.16663
    Z6        3.78968   0.00003   0.00000   0.01313   0.01410   3.80378
    X7       -2.37054   0.00002   0.00000   0.00232   0.00226  -2.36828
    Y7       -3.49930   0.00007   0.00000   0.02028   0.01914  -3.48017
    Z7       -2.06652  -0.00011   0.00000  -0.03435  -0.03290  -2.09942
    X8        1.75585  -0.00008   0.00000  -0.03257  -0.03235   1.72350
    Y8       -3.94910  -0.00007   0.00000  -0.02336  -0.02355  -3.97265
    Z8        1.75602   0.00002   0.00000   0.00666   0.00792   1.76394
    X9        2.74388   0.00009   0.00000   0.02905   0.02883   2.77271
    Y9       -1.21194   0.00003   0.00000   0.00839   0.00724  -1.20470
    Z9       -3.18157   0.00012   0.00000   0.04069   0.04132  -3.14025
         Item               Value     Threshold  Converged?
 Maximum Force            0.000123     0.000450     YES
 RMS     Force            0.000063     0.000300     YES
 Maximum Displacement     0.041321     0.001800     NO 
 RMS     Displacement     0.022279     0.001200     NO 
 Predicted change in Energy=-1.879427D-05
 GradGradGradGradGradGradGradGradGradGradGradGradGradGradGradGradGradGrad

 Leave Link  103 at Tue Mar  6 15:48:27 2018, MaxMem=   536870912 cpu:         0.9
 (Enter /share/apps//mg09/l9999.exe)
 1\1\GINC-COMPUTE-0-6\Freq\RPBE1PBE\def2TZVP\Bi4Ge3Sn2\RODRIGO\06-Mar-2
 018\0\\#P Geom=AllCheck Guess=TCheck SCRF=Check GenChk RPBE1PBE/def2TZ
 VP Freq\\01Final_coords.xyz_03\\0,1\Ge,-0.7356841503,1.20302405,-1.911
 8686851\Ge,-0.8797403779,2.0101171111,1.2336483508\Bi,1.454667823,2.05
 66643415,-0.3558272887\Bi,-2.7711743023,0.4817536237,-0.1123844609\Sn,
 1.2567641462,0.5804521099,2.3090318253\Ge,-1.2664049417,-0.6238608833,
 2.0054114484\Sn,-1.2544363838,-1.8517516624,-1.0935540878\Bi,0.9291557
 247,-2.0897748592,0.9292445863\Bi,1.4519964622,-0.6413318311,-1.683616
 6881\\Version=ES64L-G09RevD.01\State=1-A\HF=-7517.8255614\RMSD=9.074e-
 09\RMSF=6.347e-05\ZeroPoint=0.0058011\Thermal=0.0232961\Dipole=0.20905
 07,-0.2710985,-0.3973115\DipoleDeriv=-0.0518109,-0.0200798,0.0338922,-
 0.000038,0.057768,-0.0392472,-0.0080459,0.0124067,0.0003764,-0.0898146
 ,-0.0892837,-0.0306512,-0.0739317,-0.0205709,0.0048425,0.020146,-0.042
 7771,0.0054385,-0.0666568,0.0508812,-0.0780984,0.0457965,0.0592962,-0.
 0028692,-0.0575892,-0.0448945,-0.1873647,0.1685137,-0.0699734,0.022399
 6,-0.0711832,-0.0967666,-0.0264035,-0.0399602,-0.0184833,-0.1104637,0.
 1032403,0.0312782,0.1610636,0.0041722,-0.0134426,0.0640702,0.0933297,0
 .089326,0.2568874,-0.0628239,0.0587733,-0.087111,0.0873649,-0.0333367,
 0.0094952,-0.0284354,0.0491951,0.002152,0.0922033,0.1268257,0.0734428,
 0.1068946,0.2053589,0.0864629,0.0430961,0.037344,0.1227125,-0.1028736,
 -0.0613328,-0.0601308,-0.0680834,-0.0037285,-0.1454429,-0.0399872,-0.1
 148185,-0.1692424,0.0100223,-0.0270886,-0.0348069,-0.0309918,-0.154577
 9,0.0490921,0.0174462,0.0327016,0.0795041\Polar=382.3690094,5.6972588,
 378.445255,11.700737,8.3504117,375.5750756\PG=C01 [X(Bi4Ge3Sn2)]\NImag
 =0\\0.07303529,-0.00033235,0.03507322,0.00362108,-0.01380160,0.0518714
 5,-0.00042916,0.00185232,-0.00018307,0.07760467,0.00265692,-0.00140457
 ,0.00115119,0.00293132,0.06076534,-0.00010171,-0.00085927,-0.00071494,
 0.00414231,0.00833337,0.03682670,-0.02564994,-0.01185741,-0.01622116,-
 0.02516792,-0.00600984,0.01857591,0.06543041,-0.01062205,-0.00449870,-
 0.00441166,-0.00184548,-0.00302326,-0.00029292,0.02294619,0.06625549,-
 0.01659376,-0.00467127,-0.01540690,0.01933781,0.00085906,-0.01083899,-
 0.00563839,0.00762091,0.06197530,-0.02670907,-0.00515060,0.01753077,-0
 .02620301,-0.01588504,-0.01599082,-0.00360629,0.00047451,-0.00058688,0
 .09505619,-0.00657630,-0.00333870,0.00716663,-0.01843991,-0.01303443,-
 0.01260381,-0.00377475,-0.00121757,-0.00216764,-0.00479234,0.05523152,
 0.01912042,0.00673262,-0.01774856,-0.01721432,-0.01248643,-0.01009363,
 0.00099919,-0.00084196,0.00088090,0.00712763,0.00560396,0.05821893,-0.
 00121674,0.00127235,-0.00029589,-0.02015044,0.01214038,-0.01428065,-0.
 00368598,-0.00301968,0.00121269,-0.00232280,-0.00089450,-0.00125187,0.
 05748620,0.00406113,0.00008315,0.00333583,0.01643625,-0.00947099,0.005
 79504,-0.00289954,-0.00801238,0.01400361,-0.00066300,-0.00477305,0.000
 30243,0.00450310,0.05378500,-0.00387294,-0.00281959,-0.00541343,-0.012
 07567,0.00405251,-0.00441227,0.00127742,0.01252107,-0.02400465,0.00038
 794,0.00059351,-0.00241983,0.02267913,-0.00240661,0.05242051,0.0028202
 5,0.00173443,-0.00200529,-0.00274948,0.00082007,0.00398438,-0.00388120
 ,-0.00000426,0.00325718,-0.01625101,0.01002692,-0.01779543,-0.02606686
 ,-0.01442032,-0.00268508,0.06955506,-0.00203158,-0.00396911,0.00149763
 ,-0.00394737,-0.02007441,0.00776503,0.00069816,-0.00305322,0.00374433,
 0.00888538,-0.00555022,0.01188886,-0.01230065,-0.00341189,0.00058347,-
 0.00580902,0.04656118,0.00510768,0.00137969,-0.00738836,0.00468401,0.0
 0309664,-0.00112938,0.00122206,0.00000277,-0.00331927,-0.01482974,0.01
 137087,-0.02235923,-0.00714711,-0.00030807,-0.00240699,0.00018549,-0.0
 1514570,0.05182175,0.00038256,-0.00207359,-0.00331305,0.00235086,0.002
 26767,0.00293496,-0.00151844,-0.00255715,-0.00454260,-0.01624123,0.018
 58000,0.00701431,-0.00257406,-0.00426587,-0.00031840,-0.00070638,-0.00
 224342,0.00167250,0.06755380,-0.00252296,-0.00736063,0.00180834,-0.004
 40785,-0.00556965,-0.00269740,-0.00000867,-0.00321279,-0.00223278,0.01
 752350,-0.02688768,-0.01211457,-0.00073979,0.00004616,0.00096685,-0.00
 167500,-0.00044219,-0.00049762,-0.00135894,0.05447204,-0.00284612,0.00
 332703,-0.00176868,-0.00029826,-0.00171194,-0.00419070,-0.00132595,0.0
 0254996,0.00016173,0.00666712,-0.01236570,-0.00450459,-0.00069760,-0.0
 0478464,-0.00296047,0.00093515,-0.00178427,-0.00353857,0.00942803,0.01
 445375,0.03398900,-0.00135030,-0.00118532,-0.00173840,-0.00385762,-0.0
 0017930,0.00145398,0.00186603,-0.00407811,0.00120284,-0.00165263,0.004
 39298,-0.00017473,-0.00262610,-0.00186679,-0.00307123,-0.01929527,0.01
 739683,0.00805081,-0.02104041,0.00373273,-0.02084302,0.05255735,-0.000
 60077,-0.00245242,-0.00075876,0.00067538,-0.00520548,0.00117652,0.0030
 6460,-0.00467434,0.00140626,-0.00004001,-0.00009233,0.00120167,-0.0018
 8569,-0.02826924,-0.01290219,0.01436772,-0.01146270,-0.00328691,0.0029
 0844,-0.00374879,0.00046376,-0.01785814,0.06744855,-0.00470142,0.00576
 526,-0.00132114,0.00147267,-0.00286608,-0.00185937,-0.00046678,0.00136
 969,-0.00034397,0.00025890,0.00254102,-0.00057217,-0.00346632,-0.01414
 464,-0.00758306,0.01096485,-0.00559538,-0.00632369,-0.02033513,0.00035
 634,-0.01767170,0.00819149,-0.00495437,0.06697948,-0.02088288,0.015740
 16,0.00260499,-0.00139790,0.00125781,-0.00071836,-0.00378667,-0.001293
 97,0.00235111,-0.00207015,0.00147789,0.00217479,0.00115678,-0.00088495
 ,-0.00232118,-0.00342512,-0.00064833,0.00105431,-0.02820669,-0.0105430
 2,0.00898065,-0.00460104,-0.00063153,0.00808174,0.06321367,0.01596797,
 -0.01213223,0.00401240,0.00674535,-0.00298254,-0.00661656,-0.00215875,
 -0.03856323,-0.01856247,-0.00035241,-0.00033754,-0.00028657,0.00092448
 ,0.00002325,-0.00058901,-0.00504054,0.00140255,0.00338833,-0.01125716,
 -0.00729647,-0.00014795,-0.00035488,-0.01154325,0.01752816,-0.00447407
 ,0.07142946,0.00026677,0.00494713,-0.00210943,0.00013452,-0.00042830,-
 0.00358743,0.00157770,-0.01851786,-0.00910414,-0.00056493,-0.00013885,
 -0.00140181,0.00324763,-0.00179295,-0.00321980,0.00315874,-0.00295396,
 -0.00535628,0.00745939,-0.00004290,0.00048398,0.00692824,0.01765403,-0
 .03130438,-0.02220805,0.00127367,0.05559929\\0.00000532,0.00012303,0.0
 0007373,0.00000576,-0.00000223,-0.00009058,0.00008393,-0.00008108,0.00
 003762,-0.00002369,-0.00001092,-0.00003503,-0.00003658,0.00002468,0.00
 008054,-0.00001038,-0.00002268,-0.00003391,-0.00001535,-0.00006757,0.0
 0011317,0.00007754,0.00007094,-0.00002341,-0.00008657,-0.00003415,-0.0
 0012214\\\@


 ABALONE: AN EXPRESSION OF DISBELIEF.
 Job cpu time:       0 days  4 hours 30 minutes 42.5 seconds.
 File lengths (MBytes):  RWF=    299 Int=      0 D2E=      0 Chk=     16 Scr=      1
 Normal termination of Gaussian 09 at Tue Mar  6 15:48:29 2018.
