 Entering Gaussian System, Link 0=/share/apps/mg09/g09
 Initial command:
 /share/apps//mg09/l1.exe "/state/partition1/gauss_tmp/Gau-6134.inp" -scrdir="/state/partition1/gauss_tmp/"
 Entering Link 1 = /share/apps//mg09/l1.exe PID=      6159.
  
 Copyright (c) 1988,1990,1992,1993,1995,1998,2003,2009,2013,
            Gaussian, Inc.  All Rights Reserved.
  
 This is part of the Gaussian(R) 09 program.  It is based on
 the Gaussian(R) 03 system (copyright 2003, Gaussian, Inc.),
 the Gaussian(R) 98 system (copyright 1998, Gaussian, Inc.),
 the Gaussian(R) 94 system (copyright 1995, Gaussian, Inc.),
 the Gaussian 92(TM) system (copyright 1992, Gaussian, Inc.),
 the Gaussian 90(TM) system (copyright 1990, Gaussian, Inc.),
 the Gaussian 88(TM) system (copyright 1988, Gaussian, Inc.),
 the Gaussian 86(TM) system (copyright 1986, Carnegie Mellon
 University), and the Gaussian 82(TM) system (copyright 1983,
 Carnegie Mellon University). Gaussian is a federally registered
 trademark of Gaussian, Inc.
  
 This software contains proprietary and confidential information,
 including trade secrets, belonging to Gaussian, Inc.
  
 This software is provided under written license and may be
 used, copied, transmitted, or stored only in accord with that
 written license.
  
 The following legend is applicable only to US Government
 contracts under FAR:
  
                    RESTRICTED RIGHTS LEGEND
  
 Use, reproduction and disclosure by the US Government is
 subject to restrictions as set forth in subparagraphs (a)
 and (c) of the Commercial Computer Software - Restricted
 Rights clause in FAR 52.227-19.
  
 Gaussian, Inc.
 340 Quinnipiac St., Bldg. 40, Wallingford CT 06492
  
  
 ---------------------------------------------------------------
 Warning -- This program may not be used in any manner that
 competes with the business of Gaussian, Inc. or will provide
 assistance to any competitor of Gaussian, Inc.  The licensee
 of this program is prohibited from giving any competitor of
 Gaussian, Inc. access to this program.  By using this program,
 the user acknowledges that Gaussian, Inc. is engaged in the
 business of creating and licensing software in the field of
 computational chemistry and represents and warrants to the
 licensee that it is not a competitor of Gaussian, Inc. and that
 it will not use this program in any manner prohibited above.
 ---------------------------------------------------------------
  

 Cite this work as:
 Gaussian 09, Revision D.01,
 M. J. Frisch, G. W. Trucks, H. B. Schlegel, G. E. Scuseria, 
 M. A. Robb, J. R. Cheeseman, G. Scalmani, V. Barone, B. Mennucci, 
 G. A. Petersson, H. Nakatsuji, M. Caricato, X. Li, H. P. Hratchian, 
 A. F. Izmaylov, J. Bloino, G. Zheng, J. L. Sonnenberg, M. Hada, 
 M. Ehara, K. Toyota, R. Fukuda, J. Hasegawa, M. Ishida, T. Nakajima, 
 Y. Honda, O. Kitao, H. Nakai, T. Vreven, J. A. Montgomery, Jr., 
 J. E. Peralta, F. Ogliaro, M. Bearpark, J. J. Heyd, E. Brothers, 
 K. N. Kudin, V. N. Staroverov, T. Keith, R. Kobayashi, J. Normand, 
 K. Raghavachari, A. Rendell, J. C. Burant, S. S. Iyengar, J. Tomasi, 
 M. Cossi, N. Rega, J. M. Millam, M. Klene, J. E. Knox, J. B. Cross, 
 V. Bakken, C. Adamo, J. Jaramillo, R. Gomperts, R. E. Stratmann, 
 O. Yazyev, A. J. Austin, R. Cammi, C. Pomelli, J. W. Ochterski, 
 R. L. Martin, K. Morokuma, V. G. Zakrzewski, G. A. Voth, 
 P. Salvador, J. J. Dannenberg, S. Dapprich, A. D. Daniels, 
 O. Farkas, J. B. Foresman, J. V. Ortiz, J. Cioslowski, 
 and D. J. Fox, Gaussian, Inc., Wallingford CT, 2013.
 
 ******************************************
 Gaussian 09:  ES64L-G09RevD.01 24-Apr-2013
                 6-Mar-2018 
 ******************************************
 %NProcShared=4
 Will use up to    4 processors via shared memory.
 %LindaWorkers=compute-0-11
 %chk=Isomer_10.chk
 %NProc=4
 Will use up to    4 processors via shared memory.
 %mem=4GB
 SetLPE:  input flags=" -vv -opt "Tsnet.Node.lindarsharg: ssh" "
 SetLPE:    new flags=" -vv -opt "Tsnet.Node.lindarsharg: ssh"  -nodelist 'compute-0-11.local'"
 Will use up to    1 processors via Linda.
 ----------------------------------------------------------------------
 #p PBE1PBE/Def2TZVP scf=(maxcycle=768) opt=(cartesian,maxcycle=512) fr
 eq
 ----------------------------------------------------------------------
 1/6=512,10=7,14=-1,18=10,26=3,38=1/1,3;
 2/12=2,17=6,18=5,29=2,40=1/2;
 3/5=44,7=101,11=2,16=1,25=1,30=1,71=1,74=-13/1,2,3;
 4//1;
 5/5=2,7=768,38=5/2;
 6/7=2,8=2,9=2,10=2,28=1/1;
 7/7=1,29=1/1,2,3,16;
 1/6=512,10=7,14=-1,18=10,26=3/3(2);
 2/29=1/2;
 99/12=1/99;
 2/29=1/2;
 3/5=44,7=101,11=2,16=1,25=1,30=1,71=1,74=-13/1,2,3;
 4/5=5,16=3,69=1/1;
 5/5=2,7=768,38=5/2;
 7/7=1/1,2,3,16;
 1/6=512,14=-1,18=10,26=3/3(-5);
 2/29=1/2;
 6/7=2,8=2,9=2,10=2,19=2,28=1/1;
 99/9=1,12=1/99;
 Leave Link    1 at Tue Mar  6 11:56:29 2018, MaxMem=   536870912 cpu:         0.7
 (Enter /share/apps//mg09/l101.exe)
 ---------------------
 01Final_coords.xyz_10
 ---------------------
 Symbolic Z-matrix:
 Charge =  0 Multiplicity = 1
 83                    1.99439  -1.24994   0.88706 
 83                   -0.6283    2.17769   0.80261 
 50                   -0.56075  -0.45234   2.4102 
 32                    1.35175  -1.07718  -1.98033 
 50                   -0.56046  -2.64741   0.01532 
 32                   -0.52092   1.34168  -2.10841 
 83                   -2.45721  -0.10993  -0.03953 
 32                   -1.30065  -1.22148  -2.43976 
 83                    1.94767   1.41845  -0.59429 
 
 NAtoms=      9 NQM=        9 NQMF=       0 NMMI=      0 NMMIF=      0
                NMic=       0 NMicF=      0.
                    Isotopes and Nuclear Properties:
 (Nuclear quadrupole moments (NQMom) in fm**2, nuclear magnetic moments (NMagM)
  in nuclear magnetons)

  Atom         1           2           3           4           5           6           7           8           9
 IAtWgt=         209         209         118          74         118          74         209          74         209
 AtmWgt= 208.9804000 208.9804000 117.9018000  73.9211788 117.9018000  73.9211788 208.9804000  73.9211788 208.9804000
 NucSpn=           9           9           0           0           0           0           9           0           9
 AtZEff=   0.0000000   0.0000000   0.0000000   0.0000000   0.0000000   0.0000000   0.0000000   0.0000000   0.0000000
 NQMom=  -51.6000000 -51.6000000   0.0000000   0.0000000   0.0000000   0.0000000 -51.6000000   0.0000000 -51.6000000
 NMagM=    4.1106000   4.1106000   0.0000000   0.0000000   0.0000000   0.0000000   4.1106000   0.0000000   4.1106000
 AtZNuc=  83.0000000  83.0000000  50.0000000  32.0000000  50.0000000  32.0000000  83.0000000  32.0000000  83.0000000
 Leave Link  101 at Tue Mar  6 11:56:40 2018, MaxMem=   536870912 cpu:         0.3
 (Enter /share/apps//mg09/l103.exe)

 GradGradGradGradGradGradGradGradGradGradGradGradGradGradGradGradGradGrad
 Berny optimization.
 Initialization pass.
 No Z-matrix variables, so optimization will use Cartesian coordinates.
 Trust Radius=3.00D-01 FncErr=1.00D-07 GrdErr=1.00D-06
 Number of steps in this run=    100 maximum allowed number of steps=    100.
 GradGradGradGradGradGradGradGradGradGradGradGradGradGradGradGradGradGrad

 Leave Link  103 at Tue Mar  6 11:56:55 2018, MaxMem=   536870912 cpu:         0.1
 (Enter /share/apps//mg09/l202.exe)
 ---------------------------------------------------------------------------------------------------
                            Z-MATRIX (ANGSTROMS AND DEGREES)
   CD    Cent   Atom    N1       Length/X        N2       Alpha/Y        N3        Beta/Z          J
 ---------------------------------------------------------------------------------------------------
      1      1  Bi       0   1.994391         -1.249941          0.887061
      2      2  Bi       0  -0.628295          2.177693          0.802613
      3      3  Sn       0  -0.560750         -0.452341          2.410199
      4      4  Ge       0   1.351750         -1.077182         -1.980325
      5      5  Sn       0  -0.560456         -2.647405          0.015320
      6      6  Ge       0  -0.520915          1.341683         -2.108412
      7      7  Bi       0  -2.457206         -0.109931         -0.039531
      8      8  Ge       0  -1.300653         -1.221476         -2.439759
      9      9  Bi       0   1.947669          1.418451         -0.594289
 ---------------------------------------------------------------------------------------------------
                         Z-Matrix orientation:                         
 ---------------------------------------------------------------------
 Center     Atomic      Atomic             Coordinates (Angstroms)
 Number     Number       Type             X           Y           Z
 ---------------------------------------------------------------------
      1         83           0        1.994391   -1.249941    0.887061
      2         83           0       -0.628295    2.177693    0.802613
      3         50           0       -0.560750   -0.452341    2.410199
      4         32           0        1.351750   -1.077182   -1.980325
      5         50           0       -0.560456   -2.647405    0.015320
      6         32           0       -0.520915    1.341683   -2.108412
      7         83           0       -2.457206   -0.109931   -0.039531
      8         32           0       -1.300653   -1.221476   -2.439759
      9         83           0        1.947669    1.418451   -0.594289
 ---------------------------------------------------------------------
                    Distance matrix (angstroms):
                    1          2          3          4          5
     1  Bi   0.000000
     2  Bi   4.316745   0.000000
     3  Sn   3.079750   3.083176   0.000000
     4  Ge   2.943592   4.718001   4.829574   0.000000
     5  Sn   3.039750   4.889377   3.248654   3.178794   0.000000
     6  Ge   4.692136   3.030596   4.861888   3.061730   4.519361
     7  Bi   4.687741   3.047515   3.116884   4.382967   3.168508
     8  Ge   4.682505   4.745460   4.965996   2.695764   2.934038
     9  Bi   3.052359   3.027107   4.338084   2.916230   4.815963
                    6          7          8          9
     6  Ge   0.000000
     7  Bi   3.183814   0.000000
     8  Ge   2.699549   2.886909   0.000000
     9  Bi   2.896959   4.695384   4.574557   0.000000
 Stoichiometry    Bi4Ge3Sn2
 Framework group  C1[X(Bi4Ge3Sn2)]
 Deg. of freedom    21
 Full point group                 C1      NOp   1
 Largest Abelian subgroup         C1      NOp   1
 Largest concise Abelian subgroup C1      NOp   1
                         Standard orientation:                         
 ---------------------------------------------------------------------
 Center     Atomic      Atomic             Coordinates (Angstroms)
 Number     Number       Type             X           Y           Z
 ---------------------------------------------------------------------
      1         83           0        1.994391    1.249942   -0.887061
      2         83           0       -0.628294   -2.177693   -0.802613
      3         50           0       -0.560750    0.452341   -2.410199
      4         32           0        1.351750    1.077183    1.980325
      5         50           0       -0.560457    2.647405   -0.015320
      6         32           0       -0.520914   -1.341683    2.108412
      7         83           0       -2.457206    0.109930    0.039531
      8         32           0       -1.300653    1.221476    2.439759
      9         83           0        1.947670   -1.418450    0.594289
 ---------------------------------------------------------------------
 Rotational constants (GHZ):      0.1003667      0.0929200      0.0809654
 Leave Link  202 at Tue Mar  6 11:56:57 2018, MaxMem=   536870912 cpu:         0.0
 (Enter /share/apps//mg09/l301.exe)
 Standard basis: def2TZVP (5D, 7F)
 Ernie: Thresh=  0.10000D-02 Tol=  0.10000D-05 Strict=F.
 There are   519 symmetry adapted cartesian basis functions of A   symmetry.
 There are   444 symmetry adapted basis functions of A   symmetry.
   444 basis functions,   963 primitive gaussians,   519 cartesian basis functions
   116 alpha electrons      116 beta electrons
       nuclear repulsion energy      3568.4209615707 Hartrees.
 IExCor= 1009 DFT=T Ex+Corr=PBE1PBE ExCW=0 ScaHFX=  0.250000
 ScaDFX=  0.750000  0.750000  1.000000  1.000000 ScalE2=  1.000000  1.000000
 IRadAn=      0 IRanWt=     -1 IRanGd=            0 ICorTp=0 IEmpDi=  4
 NAtoms=    9 NActive=    9 NUniq=    9 SFac= 1.00D+00 NAtFMM=   60 NAOKFM=F Big=F
 Integral buffers will be    131072 words long.
 Raffenetti 2 integral format.
 Two-electron integral symmetry is turned on.
 Leave Link  301 at Tue Mar  6 11:57:11 2018, MaxMem=   536870912 cpu:         0.4
 (Enter /share/apps//mg09/l302.exe)
 NPDir=0 NMtPBC=     1 NCelOv=     1 NCel=       1 NClECP=     1 NCelD=      1
         NCelK=      1 NCelE2=     1 NClLst=     1 CellRange=     0.0.
 One-electron integrals computed using PRISM.
   1 Symmetry operations used in ECPInt.
 ECPInt:  NShTT=   10440 NPrTT=   41973 LenC2=    9694 LenP2D=   27415.
 LDataN:  DoStor=T MaxTD1= 8 Len=  415
 NBasis=   444 RedAO= T EigKep=  1.50D-03  NBF=   444
 NBsUse=   444 1.00D-06 EigRej= -1.00D+00 NBFU=   444
 Precomputing XC quadrature grid using
 IXCGrd= 4 IRadAn=           0 IRanWt=          -1 IRanGd=           0 AccXCQ= 0.00D+00.
 Defaulting to unpruned grid for atomic number  83.
 Defaulting to unpruned grid for atomic number  83.
 Defaulting to unpruned grid for atomic number  50.
 Generated NRdTot=       0 NPtTot=           0 NUsed=           0 NTot=          32
 NSgBfM=   506   506   506   506   506 MxSgAt=     9 MxSgA2=     9.
 Leave Link  302 at Tue Mar  6 11:57:31 2018, MaxMem=   536870912 cpu:        40.1
 (Enter /share/apps//mg09/l303.exe)
 DipDrv:  MaxL=1.
 Leave Link  303 at Tue Mar  6 11:57:46 2018, MaxMem=   536870912 cpu:         0.3
 (Enter /share/apps//mg09/l401.exe)
 ExpMin= 4.62D-02 ExpMax= 4.66D+05 ExpMxC= 4.50D+03 IAcc=2 IRadAn=         4 AccDes= 0.00D+00
 Harris functional with IExCor= 1009 and IRadAn=       4 diagonalized for initial guess.
 HarFok:  IExCor= 1009 AccDes= 0.00D+00 IRadAn=         4 IDoV= 1 UseB2=F ITyADJ=14
 ICtDFT=  3500011 ScaDFX=  1.000000  1.000000  1.000000  1.000000
 Defaulting to unpruned grid for atomic number  83.
 Defaulting to unpruned grid for atomic number  83.
 Defaulting to unpruned grid for atomic number  83.
 Defaulting to unpruned grid for atomic number  83.
 FoFCou: FMM=F IPFlag=           0 FMFlag=      100000 FMFlg1=           0
         NFxFlg=           0 DoJE=T BraDBF=F KetDBF=T FulRan=T
         wScrn=  0.000000 ICntrl=     500 IOpCl=  0 I1Cent=   200000004 NGrid=           0
         NMat0=    1 NMatS0=      1 NMatT0=    0 NMatD0=    1 NMtDS0=    0 NMtDT0=    0
 Petite list used in FoFCou.
 Harris En= -7518.61457459315    
 JPrj=0 DoOrth=F DoCkMO=F.
 Leave Link  401 at Tue Mar  6 11:57:57 2018, MaxMem=   536870912 cpu:        12.0
 (Enter /share/apps//mg09/l502.exe)
 Closed shell SCF:
 Using DIIS extrapolation, IDIIS=  1040.
 Integral symmetry usage will be decided dynamically.
 IVT=     1410107 IEndB=     1410107 NGot=   536870912 MDV=   536322046
 LenX=   536322046 LenY=   536052166
 Requested convergence on RMS density matrix=1.00D-08 within 768 cycles.
 Requested convergence on MAX density matrix=1.00D-06.
 Requested convergence on             energy=1.00D-06.
 No special actions if energy rises.
 Fock matrices will be formed incrementally for  20 cycles.

 Cycle   1  Pass 1  IDiag  1:
 FoFJK:  IHMeth= 1 ICntrl=       0 DoSepK=F KAlg= 0 I1Cent=   0 FoldK=F
 IRaf= 880000000 NMat=   1 IRICut=       1 DoRegI=T DoRafI=F ISym2E= 0.
 FoFCou: FMM=F IPFlag=           0 FMFlag=      100000 FMFlg1=           0
         NFxFlg=           0 DoJE=F BraDBF=F KetDBF=F FulRan=T
         wScrn=  0.000000 ICntrl=       0 IOpCl=  0 I1Cent=           0 NGrid=           0
         NMat0=    1 NMatS0=      1 NMatT0=    0 NMatD0=    1 NMtDS0=    0 NMtDT0=    0
 Symmetry not used in FoFCou.
 Defaulting to unpruned grid for atomic number  83.
 Defaulting to unpruned grid for atomic number  83.
 Defaulting to unpruned grid for atomic number  83.
 Defaulting to unpruned grid for atomic number  83.
 E= -7517.23034776731    
 DIIS: error= 2.70D-02 at cycle   1 NSaved=   1.
 NSaved= 1 IEnMin= 1 EnMin= -7517.23034776731     IErMin= 1 ErrMin= 2.70D-02
 ErrMax= 2.70D-02  0.00D+00 EMaxC= 1.00D-01 BMatC= 1.48D+00 BMatP= 1.48D+00
 IDIUse=3 WtCom= 7.30D-01 WtEn= 2.70D-01
 Coeff-Com:  0.100D+01
 Coeff-En:   0.100D+01
 Coeff:      0.100D+01
 Gap=     0.132 Goal=   None    Shift=    0.000
 GapD=    0.132 DampG=1.000 DampE=0.500 DampFc=0.5000 IDamp=-1.
 Damping current iteration by 5.00D-01
 RMSDP=5.49D-03 MaxDP=2.41D-01              OVMax= 7.38D-01

 Cycle   2  Pass 1  IDiag  1:
 RMSU=  2.74D-03    CP:  1.01D+00
 E= -7517.04207858604     Delta-E=        0.188269181275 Rises=F Damp=T
 DIIS: error= 1.25D-02 at cycle   2 NSaved=   2.
 NSaved= 2 IEnMin= 1 EnMin= -7517.23034776731     IErMin= 2 ErrMin= 1.25D-02
 ErrMax= 1.25D-02  0.00D+00 EMaxC= 1.00D-01 BMatC= 2.99D-01 BMatP= 1.48D+00
 IDIUse=3 WtCom= 8.75D-01 WtEn= 1.25D-01
 Coeff-Com:  0.157D+00 0.843D+00
 Coeff-En:   0.598D+00 0.402D+00
 Coeff:      0.213D+00 0.787D+00
 Gap=     0.112 Goal=   None    Shift=    0.000
 RMSDP=4.10D-03 MaxDP=1.73D-01 DE= 1.88D-01 OVMax= 6.67D-01

 Cycle   3  Pass 1  IDiag  1:
 RMSU=  3.30D-03    CP:  1.00D+00  1.10D-01
 E= -7515.29060393778     Delta-E=        1.751474648259 Rises=F Damp=F
 DIIS: error= 4.27D-02 at cycle   3 NSaved=   3.
 NSaved= 3 IEnMin= 1 EnMin= -7517.23034776731     IErMin= 2 ErrMin= 1.25D-02
 ErrMax= 4.27D-02  0.00D+00 EMaxC= 1.00D-01 BMatC= 1.93D+00 BMatP= 2.99D-01
 IDIUse=2 WtCom= 0.00D+00 WtEn= 1.00D+00
 EnCoef did    11 forward-backward iterations
 Coeff-En:   0.536D+00 0.427D+00 0.370D-01
 Coeff:      0.536D+00 0.427D+00 0.370D-01
 Gap=     0.143 Goal=   None    Shift=    0.000
 RMSDP=3.45D-03 MaxDP=1.39D-01 DE= 1.75D+00 OVMax= 4.23D-01

 Cycle   4  Pass 1  IDiag  1:
 RMSU=  1.54D-03    CP:  1.01D+00  8.23D-01  2.75D-01
 E= -7517.69126022992     Delta-E=       -2.400656292142 Rises=F Damp=F
 DIIS: error= 1.04D-02 at cycle   4 NSaved=   4.
 NSaved= 4 IEnMin= 4 EnMin= -7517.69126022992     IErMin= 4 ErrMin= 1.04D-02
 ErrMax= 1.04D-02  0.00D+00 EMaxC= 1.00D-01 BMatC= 2.97D-01 BMatP= 2.99D-01
 IDIUse=3 WtCom= 8.96D-01 WtEn= 1.04D-01
 Coeff-Com:  0.317D+00-0.104D-01-0.568D-01 0.750D+00
 Coeff-En:   0.130D+00 0.000D+00 0.000D+00 0.870D+00
 Coeff:      0.298D+00-0.936D-02-0.509D-01 0.763D+00
 Gap=     0.124 Goal=   None    Shift=    0.000
 RMSDP=1.36D-03 MaxDP=6.68D-02 DE=-2.40D+00 OVMax= 1.09D-01

 Cycle   5  Pass 1  IDiag  1:
 RMSU=  7.14D-04    CP:  1.00D+00  6.04D-01  3.22D-02  6.29D-01
 E= -7517.76127353802     Delta-E=       -0.070013308095 Rises=F Damp=F
 DIIS: error= 6.04D-03 at cycle   5 NSaved=   5.
 NSaved= 5 IEnMin= 5 EnMin= -7517.76127353802     IErMin= 5 ErrMin= 6.04D-03
 ErrMax= 6.04D-03  0.00D+00 EMaxC= 1.00D-01 BMatC= 6.29D-02 BMatP= 2.97D-01
 IDIUse=3 WtCom= 9.40D-01 WtEn= 6.04D-02
 Coeff-Com:  0.143D+00-0.632D-01-0.981D-02 0.439D+00 0.491D+00
 Coeff-En:   0.000D+00 0.000D+00 0.000D+00 0.306D+00 0.694D+00
 Coeff:      0.134D+00-0.594D-01-0.922D-02 0.431D+00 0.503D+00
 Gap=     0.128 Goal=   None    Shift=    0.000
 RMSDP=7.65D-04 MaxDP=4.06D-02 DE=-7.00D-02 OVMax= 7.43D-02

 Cycle   6  Pass 1  IDiag  1:
 RMSU=  3.92D-04    CP:  1.00D+00  5.70D-01  1.37D-01  7.43D-01  2.87D-01
 E= -7517.80863094561     Delta-E=       -0.047357407599 Rises=F Damp=F
 DIIS: error= 3.29D-03 at cycle   6 NSaved=   6.
 NSaved= 6 IEnMin= 6 EnMin= -7517.80863094561     IErMin= 6 ErrMin= 3.29D-03
 ErrMax= 3.29D-03  0.00D+00 EMaxC= 1.00D-01 BMatC= 1.26D-02 BMatP= 6.29D-02
 IDIUse=3 WtCom= 9.67D-01 WtEn= 3.29D-02
 Coeff-Com:  0.378D-01-0.483D-01 0.187D-02 0.175D+00 0.356D+00 0.478D+00
 Coeff-En:   0.000D+00 0.000D+00 0.000D+00 0.000D+00 0.202D+00 0.798D+00
 Coeff:      0.366D-01-0.467D-01 0.181D-02 0.169D+00 0.351D+00 0.489D+00
 Gap=     0.124 Goal=   None    Shift=    0.000
 RMSDP=3.12D-04 MaxDP=1.62D-02 DE=-4.74D-02 OVMax= 3.10D-02

 Cycle   7  Pass 1  IDiag  1:
 RMSU=  1.51D-04    CP:  1.00D+00  5.79D-01  1.09D-01  7.15D-01  5.08D-01
                    CP:  5.11D-01
 E= -7517.81718005500     Delta-E=       -0.008549109391 Rises=F Damp=F
 DIIS: error= 1.35D-03 at cycle   7 NSaved=   7.
 NSaved= 7 IEnMin= 7 EnMin= -7517.81718005500     IErMin= 7 ErrMin= 1.35D-03
 ErrMax= 1.35D-03  0.00D+00 EMaxC= 1.00D-01 BMatC= 1.81D-03 BMatP= 1.26D-02
 IDIUse=3 WtCom= 9.86D-01 WtEn= 1.35D-02
 Coeff-Com:  0.207D-01-0.358D-01 0.933D-03 0.965D-01 0.207D+00 0.347D+00
 Coeff-Com:  0.364D+00
 Coeff-En:   0.000D+00 0.000D+00 0.000D+00 0.000D+00 0.000D+00 0.207D+00
 Coeff-En:   0.793D+00
 Coeff:      0.205D-01-0.353D-01 0.921D-03 0.952D-01 0.204D+00 0.345D+00
 Coeff:      0.370D+00
 Gap=     0.125 Goal=   None    Shift=    0.000
 RMSDP=1.47D-04 MaxDP=7.15D-03 DE=-8.55D-03 OVMax= 1.67D-02

 Cycle   8  Pass 1  IDiag  1:
 RMSU=  6.04D-05    CP:  1.00D+00  5.78D-01  1.14D-01  7.22D-01  4.92D-01
                    CP:  6.12D-01  1.75D-01
 E= -7517.81901362988     Delta-E=       -0.001833574879 Rises=F Damp=F
 DIIS: error= 6.14D-04 at cycle   8 NSaved=   8.
 NSaved= 8 IEnMin= 8 EnMin= -7517.81901362988     IErMin= 8 ErrMin= 6.14D-04
 ErrMax= 6.14D-04  0.00D+00 EMaxC= 1.00D-01 BMatC= 4.20D-04 BMatP= 1.81D-03
 IDIUse=3 WtCom= 9.94D-01 WtEn= 6.14D-03
 Coeff-Com:  0.943D-02-0.185D-01 0.173D-02 0.384D-01 0.772D-01 0.165D+00
 Coeff-Com:  0.306D+00 0.421D+00
 Coeff-En:   0.000D+00 0.000D+00 0.000D+00 0.000D+00 0.000D+00 0.000D+00
 Coeff-En:   0.216D+00 0.784D+00
 Coeff:      0.937D-02-0.184D-01 0.172D-02 0.382D-01 0.768D-01 0.164D+00
 Coeff:      0.305D+00 0.423D+00
 Gap=     0.124 Goal=   None    Shift=    0.000
 RMSDP=5.35D-05 MaxDP=2.23D-03 DE=-1.83D-03 OVMax= 6.04D-03

 Cycle   9  Pass 1  IDiag  1:
 RMSU=  2.09D-05    CP:  1.00D+00  5.77D-01  1.20D-01  7.24D-01  4.88D-01
                    CP:  5.87D-01  4.13D-01  5.63D-01
 E= -7517.81954200669     Delta-E=       -0.000528376810 Rises=F Damp=F
 DIIS: error= 7.51D-05 at cycle   9 NSaved=   9.
 NSaved= 9 IEnMin= 9 EnMin= -7517.81954200669     IErMin= 9 ErrMin= 7.51D-05
 ErrMax= 7.51D-05  0.00D+00 EMaxC= 1.00D-01 BMatC= 1.11D-05 BMatP= 4.20D-04
 IDIUse=1 WtCom= 1.00D+00 WtEn= 0.00D+00
 Coeff-Com:  0.276D-02-0.574D-02 0.422D-03 0.697D-02 0.687D-02 0.302D-01
 Coeff-Com:  0.822D-01 0.169D+00 0.708D+00
 Coeff:      0.276D-02-0.574D-02 0.422D-03 0.697D-02 0.687D-02 0.302D-01
 Coeff:      0.822D-01 0.169D+00 0.708D+00
 Gap=     0.124 Goal=   None    Shift=    0.000
 RMSDP=1.46D-05 MaxDP=9.68D-04 DE=-5.28D-04 OVMax= 1.50D-03

 Cycle  10  Pass 1  IDiag  1:
 RMSU=  1.11D-05    CP:  1.00D+00  5.75D-01  1.20D-01  7.24D-01  4.82D-01
                    CP:  5.95D-01  4.14D-01  6.32D-01  7.31D-01
 E= -7517.81954847446     Delta-E=       -0.000006467762 Rises=F Damp=F
 DIIS: error= 5.45D-05 at cycle  10 NSaved=  10.
 NSaved=10 IEnMin=10 EnMin= -7517.81954847446     IErMin=10 ErrMin= 5.45D-05
 ErrMax= 5.45D-05  0.00D+00 EMaxC= 1.00D-01 BMatC= 6.05D-06 BMatP= 1.11D-05
 IDIUse=1 WtCom= 1.00D+00 WtEn= 0.00D+00
 Coeff-Com:  0.530D-03-0.122D-02 0.255D-03-0.975D-03-0.704D-02-0.354D-02
 Coeff-Com:  0.125D-01 0.557D-01 0.514D+00 0.430D+00
 Coeff:      0.530D-03-0.122D-02 0.255D-03-0.975D-03-0.704D-02-0.354D-02
 Coeff:      0.125D-01 0.557D-01 0.514D+00 0.430D+00
 Gap=     0.124 Goal=   None    Shift=    0.000
 RMSDP=8.82D-06 MaxDP=6.18D-04 DE=-6.47D-06 OVMax= 1.07D-03

 Cycle  11  Pass 1  IDiag  1:
 RMSU=  4.88D-06    CP:  1.00D+00  5.75D-01  1.20D-01  7.24D-01  4.83D-01
                    CP:  5.96D-01  4.10D-01  6.21D-01  8.91D-01  4.36D-01
 E= -7517.81955404495     Delta-E=       -0.000005570491 Rises=F Damp=F
 DIIS: error= 3.15D-05 at cycle  11 NSaved=  11.
 NSaved=11 IEnMin=11 EnMin= -7517.81955404495     IErMin=11 ErrMin= 3.15D-05
 ErrMax= 3.15D-05  0.00D+00 EMaxC= 1.00D-01 BMatC= 1.44D-06 BMatP= 6.05D-06
 IDIUse=1 WtCom= 1.00D+00 WtEn= 0.00D+00
 Coeff-Com:  0.960D-04-0.283D-03 0.155D-03-0.149D-02-0.600D-02-0.625D-02
 Coeff-Com: -0.759D-03 0.206D-01 0.306D+00 0.341D+00 0.347D+00
 Coeff:      0.960D-04-0.283D-03 0.155D-03-0.149D-02-0.600D-02-0.625D-02
 Coeff:     -0.759D-03 0.206D-01 0.306D+00 0.341D+00 0.347D+00
 Gap=     0.124 Goal=   None    Shift=    0.000
 RMSDP=3.88D-06 MaxDP=1.58D-04 DE=-5.57D-06 OVMax= 4.65D-04

 Cycle  12  Pass 1  IDiag  1:
 RMSU=  1.76D-06    CP:  1.00D+00  5.75D-01  1.20D-01  7.24D-01  4.84D-01
                    CP:  5.96D-01  4.12D-01  6.22D-01  9.05D-01  5.42D-01
                    CP:  3.40D-01
 E= -7517.81955587657     Delta-E=       -0.000001831626 Rises=F Damp=F
 DIIS: error= 8.76D-06 at cycle  12 NSaved=  12.
 NSaved=12 IEnMin=12 EnMin= -7517.81955587657     IErMin=12 ErrMin= 8.76D-06
 ErrMax= 8.76D-06  0.00D+00 EMaxC= 1.00D-01 BMatC= 1.08D-07 BMatP= 1.44D-06
 IDIUse=1 WtCom= 1.00D+00 WtEn= 0.00D+00
 Coeff-Com:  0.845D-05-0.402D-04 0.475D-04-0.545D-03-0.208D-02-0.293D-02
 Coeff-Com: -0.259D-02 0.208D-02 0.891D-01 0.135D+00 0.239D+00 0.543D+00
 Coeff:      0.845D-05-0.402D-04 0.475D-04-0.545D-03-0.208D-02-0.293D-02
 Coeff:     -0.259D-02 0.208D-02 0.891D-01 0.135D+00 0.239D+00 0.543D+00
 Gap=     0.124 Goal=   None    Shift=    0.000
 RMSDP=9.63D-07 MaxDP=6.84D-05 DE=-1.83D-06 OVMax= 1.05D-04

 Cycle  13  Pass 1  IDiag  1:
 RMSU=  5.53D-07    CP:  1.00D+00  5.75D-01  1.20D-01  7.24D-01  4.83D-01
                    CP:  5.96D-01  4.12D-01  6.22D-01  8.99D-01  5.33D-01
                    CP:  4.42D-01  6.98D-01
 E= -7517.81955599644     Delta-E=       -0.000000119868 Rises=F Damp=F
 DIIS: error= 2.07D-06 at cycle  13 NSaved=  13.
 NSaved=13 IEnMin=13 EnMin= -7517.81955599644     IErMin=13 ErrMin= 2.07D-06
 ErrMax= 2.07D-06  0.00D+00 EMaxC= 1.00D-01 BMatC= 6.83D-09 BMatP= 1.08D-07
 IDIUse=1 WtCom= 1.00D+00 WtEn= 0.00D+00
 Coeff-Com:  0.136D-05 0.228D-05 0.745D-05-0.143D-03-0.571D-03-0.106D-02
 Coeff-Com: -0.144D-02-0.829D-03 0.123D-01 0.319D-01 0.810D-01 0.261D+00
 Coeff-Com:  0.618D+00
 Coeff:      0.136D-05 0.228D-05 0.745D-05-0.143D-03-0.571D-03-0.106D-02
 Coeff:     -0.144D-02-0.829D-03 0.123D-01 0.319D-01 0.810D-01 0.261D+00
 Coeff:      0.618D+00
 Gap=     0.124 Goal=   None    Shift=    0.000
 RMSDP=3.20D-07 MaxDP=2.37D-05 DE=-1.20D-07 OVMax= 3.26D-05

 Cycle  14  Pass 1  IDiag  1:
 RMSU=  2.03D-07    CP:  1.00D+00  5.75D-01  1.20D-01  7.24D-01  4.83D-01
                    CP:  5.95D-01  4.12D-01  6.23D-01  9.01D-01  5.43D-01
                    CP:  4.62D-01  7.42D-01  7.48D-01
 E= -7517.81955600393     Delta-E=       -0.000000007491 Rises=F Damp=F
 DIIS: error= 9.15D-07 at cycle  14 NSaved=  14.
 NSaved=14 IEnMin=14 EnMin= -7517.81955600393     IErMin=14 ErrMin= 9.15D-07
 ErrMax= 9.15D-07  0.00D+00 EMaxC= 1.00D-01 BMatC= 1.08D-09 BMatP= 6.83D-09
 IDIUse=1 WtCom= 1.00D+00 WtEn= 0.00D+00
 Coeff-Com: -0.577D-06 0.646D-05 0.136D-05-0.741D-05-0.419D-04-0.216D-03
 Coeff-Com: -0.591D-03-0.830D-03-0.471D-02 0.187D-02 0.179D-01 0.954D-01
 Coeff-Com:  0.347D+00 0.544D+00
 Coeff:     -0.577D-06 0.646D-05 0.136D-05-0.741D-05-0.419D-04-0.216D-03
 Coeff:     -0.591D-03-0.830D-03-0.471D-02 0.187D-02 0.179D-01 0.954D-01
 Coeff:      0.347D+00 0.544D+00
 Gap=     0.124 Goal=   None    Shift=    0.000
 RMSDP=1.23D-07 MaxDP=8.77D-06 DE=-7.49D-09 OVMax= 1.15D-05

 Cycle  15  Pass 1  IDiag  1:
 RMSU=  6.20D-08    CP:  1.00D+00  5.75D-01  1.20D-01  7.24D-01  4.83D-01
                    CP:  5.95D-01  4.12D-01  6.23D-01  9.01D-01  5.42D-01
                    CP:  4.58D-01  7.56D-01  8.72D-01  6.73D-01
 E= -7517.81955600524     Delta-E=       -0.000000001306 Rises=F Damp=F
 DIIS: error= 2.25D-07 at cycle  15 NSaved=  15.
 NSaved=15 IEnMin=15 EnMin= -7517.81955600524     IErMin=15 ErrMin= 2.25D-07
 ErrMax= 2.25D-07  0.00D+00 EMaxC= 1.00D-01 BMatC= 1.02D-10 BMatP= 1.08D-09
 IDIUse=1 WtCom= 1.00D+00 WtEn= 0.00D+00
 Coeff-Com: -0.528D-06 0.363D-05-0.636D-06 0.120D-04 0.413D-04 0.244D-04
 Coeff-Com: -0.113D-03-0.327D-03-0.393D-02-0.339D-02-0.148D-02 0.191D-01
 Coeff-Com:  0.109D+00 0.286D+00 0.595D+00
 Coeff:     -0.528D-06 0.363D-05-0.636D-06 0.120D-04 0.413D-04 0.244D-04
 Coeff:     -0.113D-03-0.327D-03-0.393D-02-0.339D-02-0.148D-02 0.191D-01
 Coeff:      0.109D+00 0.286D+00 0.595D+00
 Gap=     0.124 Goal=   None    Shift=    0.000
 RMSDP=3.77D-08 MaxDP=2.30D-06 DE=-1.31D-09 OVMax= 4.45D-06

 Cycle  16  Pass 1  IDiag  1:
 RMSU=  2.07D-08    CP:  1.00D+00  5.75D-01  1.20D-01  7.24D-01  4.83D-01
                    CP:  5.95D-01  4.12D-01  6.23D-01  9.01D-01  5.42D-01
                    CP:  4.58D-01  7.66D-01  8.62D-01  7.68D-01  7.99D-01
 E= -7517.81955600564     Delta-E=       -0.000000000404 Rises=F Damp=F
 DIIS: error= 6.40D-08 at cycle  16 NSaved=  16.
 NSaved=16 IEnMin=16 EnMin= -7517.81955600564     IErMin=16 ErrMin= 6.40D-08
 ErrMax= 6.40D-08  0.00D+00 EMaxC= 1.00D-01 BMatC= 8.75D-12 BMatP= 1.02D-10
 IDIUse=1 WtCom= 1.00D+00 WtEn= 0.00D+00
 Coeff-Com: -0.613D-06 0.168D-05-0.354D-06 0.511D-05 0.216D-04 0.387D-04
 Coeff-Com:  0.195D-04-0.611D-04-0.108D-02-0.150D-02-0.200D-02-0.146D-02
 Coeff-Com:  0.119D-01 0.622D-01 0.265D+00 0.667D+00
 Coeff:     -0.613D-06 0.168D-05-0.354D-06 0.511D-05 0.216D-04 0.387D-04
 Coeff:      0.195D-04-0.611D-04-0.108D-02-0.150D-02-0.200D-02-0.146D-02
 Coeff:      0.119D-01 0.622D-01 0.265D+00 0.667D+00
 Gap=     0.124 Goal=   None    Shift=    0.000
 RMSDP=1.30D-08 MaxDP=7.42D-07 DE=-4.04D-10 OVMax= 1.51D-06

 Cycle  17  Pass 1  IDiag  1:
 RMSU=  7.92D-09    CP:  1.00D+00  5.75D-01  1.20D-01  7.24D-01  4.83D-01
                    CP:  5.95D-01  4.12D-01  6.23D-01  9.01D-01  5.42D-01
                    CP:  4.58D-01  7.66D-01  8.70D-01  7.70D-01  8.79D-01
                    CP:  7.95D-01
 E= -7517.81955600565     Delta-E=       -0.000000000004 Rises=F Damp=F
 DIIS: error= 2.89D-08 at cycle  17 NSaved=  17.
 NSaved=17 IEnMin=17 EnMin= -7517.81955600565     IErMin=17 ErrMin= 2.89D-08
 ErrMax= 2.89D-08  0.00D+00 EMaxC= 1.00D-01 BMatC= 1.53D-12 BMatP= 8.75D-12
 IDIUse=1 WtCom= 1.00D+00 WtEn= 0.00D+00
 Coeff-Com: -0.226D-06 0.426D-06-0.160D-06 0.250D-05 0.107D-04 0.232D-04
 Coeff-Com:  0.243D-04-0.674D-06-0.268D-03-0.550D-03-0.105D-02-0.287D-02
 Coeff-Com: -0.314D-02 0.773D-02 0.952D-01 0.386D+00 0.518D+00
 Coeff:     -0.226D-06 0.426D-06-0.160D-06 0.250D-05 0.107D-04 0.232D-04
 Coeff:      0.243D-04-0.674D-06-0.268D-03-0.550D-03-0.105D-02-0.287D-02
 Coeff:     -0.314D-02 0.773D-02 0.952D-01 0.386D+00 0.518D+00
 Gap=     0.124 Goal=   None    Shift=    0.000
 RMSDP=4.95D-09 MaxDP=3.26D-07 DE=-3.64D-12 OVMax= 5.93D-07

 SCF Done:  E(RPBE1PBE) =  -7517.81955601     A.U. after   17 cycles
            NFock= 17  Conv=0.50D-08     -V/T= 2.1285
 KE= 6.661946703270D+03 PE=-2.472806392520D+04 EE= 6.979876704352D+03
 Leave Link  502 at Tue Mar  6 12:24:00 2018, MaxMem=   536870912 cpu:      6168.3
 (Enter /share/apps//mg09/l601.exe)
 Copying SCF densities to generalized density rwf, IOpCl= 0 IROHF=0.

 **********************************************************************

            Population analysis using the SCF density.

 **********************************************************************

 Orbital symmetries:
       Occupied  (A) (A) (A) (A) (A) (A) (A) (A) (A) (A) (A) (A)
                 (A) (A) (A) (A) (A) (A) (A) (A) (A) (A) (A) (A)
                 (A) (A) (A) (A) (A) (A) (A) (A) (A) (A) (A) (A)
                 (A) (A) (A) (A) (A) (A) (A) (A) (A) (A) (A) (A)
                 (A) (A) (A) (A) (A) (A) (A) (A) (A) (A) (A) (A)
                 (A) (A) (A) (A) (A) (A) (A) (A) (A) (A) (A) (A)
                 (A) (A) (A) (A) (A) (A) (A) (A) (A) (A) (A) (A)
                 (A) (A) (A) (A) (A) (A) (A) (A) (A) (A) (A) (A)
                 (A) (A) (A) (A) (A) (A) (A) (A) (A) (A) (A) (A)
                 (A) (A) (A) (A) (A) (A) (A) (A)
       Virtual   (A) (A) (A) (A) (A) (A) (A) (A) (A) (A) (A) (A)
                 (A) (A) (A) (A) (A) (A) (A) (A) (A) (A) (A) (A)
                 (A) (A) (A) (A) (A) (A) (A) (A) (A) (A) (A) (A)
                 (A) (A) (A) (A) (A) (A) (A) (A) (A) (A) (A) (A)
                 (A) (A) (A) (A) (A) (A) (A) (A) (A) (A) (A) (A)
                 (A) (A) (A) (A) (A) (A) (A) (A) (A) (A) (A) (A)
                 (A) (A) (A) (A) (A) (A) (A) (A) (A) (A) (A) (A)
                 (A) (A) (A) (A) (A) (A) (A) (A) (A) (A) (A) (A)
                 (A) (A) (A) (A) (A) (A) (A) (A) (A) (A) (A) (A)
                 (A) (A) (A) (A) (A) (A) (A) (A) (A) (A) (A) (A)
                 (A) (A) (A) (A) (A) (A) (A) (A) (A) (A) (A) (A)
                 (A) (A) (A) (A) (A) (A) (A) (A) (A) (A) (A) (A)
                 (A) (A) (A) (A) (A) (A) (A) (A) (A) (A) (A) (A)
                 (A) (A) (A) (A) (A) (A) (A) (A) (A) (A) (A) (A)
                 (A) (A) (A) (A) (A) (A) (A) (A) (A) (A) (A) (A)
                 (A) (A) (A) (A) (A) (A) (A) (A) (A) (A) (A) (A)
                 (A) (A) (A) (A) (A) (A) (A) (A) (A) (A) (A) (A)
                 (A) (A) (A) (A) (A) (A) (A) (A) (A) (A) (A) (A)
                 (A) (A) (A) (A) (A) (A) (A) (A) (A) (A) (A) (A)
                 (A) (A) (A) (A) (A) (A) (A) (A) (A) (A) (A) (A)
                 (A) (A) (A) (A) (A) (A) (A) (A) (A) (A) (A) (A)
                 (A) (A) (A) (A) (A) (A) (A) (A) (A) (A) (A) (A)
                 (A) (A) (A) (A) (A) (A) (A) (A) (A) (A) (A) (A)
                 (A) (A) (A) (A) (A) (A) (A) (A) (A) (A) (A) (A)
                 (A) (A) (A) (A) (A) (A) (A) (A) (A) (A) (A) (A)
                 (A) (A) (A) (A) (A) (A) (A) (A) (A) (A) (A) (A)
                 (A) (A) (A) (A) (A) (A) (A) (A) (A) (A) (A) (A)
                 (A) (A) (A) (A)
 The electronic state is 1-A.
 Alpha  occ. eigenvalues -- -399.10484-399.09918-399.08929 -49.92024 -49.91474
 Alpha  occ. eigenvalues --  -49.90545 -44.40125 -44.40087 -44.40031 -44.39562
 Alpha  occ. eigenvalues --  -44.39544 -44.39486 -44.38631 -44.38600 -44.38557
 Alpha  occ. eigenvalues --   -6.28521  -6.27976  -6.27062  -6.02156  -6.02096
 Alpha  occ. eigenvalues --   -6.01669  -6.00997  -5.13591  -5.13211  -4.44012
 Alpha  occ. eigenvalues --   -4.43894  -4.43706  -4.43430  -4.43380  -4.43178
 Alpha  occ. eigenvalues --   -4.42540  -4.42432  -4.42287  -3.74461  -3.74385
 Alpha  occ. eigenvalues --   -3.74266  -3.74192  -3.74155  -3.74131  -3.73964
 Alpha  occ. eigenvalues --   -3.73874  -3.73571  -3.73321  -3.73103  -3.72965
 Alpha  occ. eigenvalues --   -3.46826  -3.46710  -3.46583  -3.46418  -3.46353
 Alpha  occ. eigenvalues --   -3.46199  -1.23472  -1.23445  -1.23289  -1.23213
 Alpha  occ. eigenvalues --   -1.23189  -1.22915  -1.22895  -1.22725  -1.22712
 Alpha  occ. eigenvalues --   -1.22659  -1.22003  -1.21966  -1.21843  -1.21761
 Alpha  occ. eigenvalues --   -1.21724  -1.08567  -1.08318  -1.08144  -1.08077
 Alpha  occ. eigenvalues --   -1.08021  -1.07953  -1.07889  -1.07797  -1.07761
 Alpha  occ. eigenvalues --   -1.07718  -1.07460  -1.07335  -1.07234  -1.07126
 Alpha  occ. eigenvalues --   -1.07099  -1.06923  -1.06830  -1.06693  -1.06605
 Alpha  occ. eigenvalues --   -1.06530  -1.03045  -1.03006  -1.02886  -1.02818
 Alpha  occ. eigenvalues --   -1.02773  -1.02588  -1.02560  -1.02466  -1.02372
 Alpha  occ. eigenvalues --   -1.02339  -0.66755  -0.62168  -0.59492  -0.56371
 Alpha  occ. eigenvalues --   -0.52142  -0.46282  -0.44035  -0.42576  -0.40411
 Alpha  occ. eigenvalues --   -0.29020  -0.27831  -0.26631  -0.25701  -0.24775
 Alpha  occ. eigenvalues --   -0.24415  -0.23116  -0.22834  -0.22122  -0.21089
 Alpha  occ. eigenvalues --   -0.20149
 Alpha virt. eigenvalues --   -0.07722  -0.07169  -0.06958  -0.06532  -0.05909
 Alpha virt. eigenvalues --   -0.05674  -0.05205  -0.04678  -0.04154  -0.03778
 Alpha virt. eigenvalues --   -0.03423  -0.02490  -0.01553   0.03504   0.05243
 Alpha virt. eigenvalues --    0.05681   0.06316   0.08341   0.08645   0.08992
 Alpha virt. eigenvalues --    0.09361   0.09532   0.09581   0.10337   0.10493
 Alpha virt. eigenvalues --    0.11315   0.11675   0.12097   0.12229   0.13461
 Alpha virt. eigenvalues --    0.13872   0.15928   0.16773   0.17144   0.17206
 Alpha virt. eigenvalues --    0.18256   0.18689   0.18989   0.19647   0.20081
 Alpha virt. eigenvalues --    0.20885   0.21017   0.21787   0.23398   0.23647
 Alpha virt. eigenvalues --    0.24594   0.25416   0.26180   0.26767   0.28599
 Alpha virt. eigenvalues --    0.29047   0.29689   0.30492   0.30612   0.31293
 Alpha virt. eigenvalues --    0.32148   0.32690   0.32926   0.33429   0.34160
 Alpha virt. eigenvalues --    0.34361   0.35689   0.36551   0.36736   0.38199
 Alpha virt. eigenvalues --    0.38581   0.39719   0.40441   0.41119   0.41656
 Alpha virt. eigenvalues --    0.42319   0.42665   0.43643   0.44014   0.44624
 Alpha virt. eigenvalues --    0.45461   0.46454   0.46724   0.47189   0.47639
 Alpha virt. eigenvalues --    0.48150   0.49304   0.49738   0.50382   0.51308
 Alpha virt. eigenvalues --    0.51872   0.54189   0.54708   0.55353   0.56038
 Alpha virt. eigenvalues --    0.56411   0.58008   0.58598   0.59579   0.59975
 Alpha virt. eigenvalues --    0.60317   0.60945   0.61357   0.61673   0.61824
 Alpha virt. eigenvalues --    0.63826   0.64124   0.65129   0.65479   0.66148
 Alpha virt. eigenvalues --    0.67414   0.67522   0.68739   0.68998   0.69289
 Alpha virt. eigenvalues --    0.70695   0.70790   0.72716   0.74229   0.74284
 Alpha virt. eigenvalues --    0.74982   0.75283   0.75541   0.76769   0.77520
 Alpha virt. eigenvalues --    0.79224   0.80038   0.80364   0.81037   0.82340
 Alpha virt. eigenvalues --    0.83107   0.83495   0.84388   0.84553   0.86069
 Alpha virt. eigenvalues --    0.86502   0.86713   0.88088   0.89700   0.89945
 Alpha virt. eigenvalues --    0.91164   0.91317   0.92026   0.92743   0.93086
 Alpha virt. eigenvalues --    0.93847   0.94476   0.95277   0.96313   0.97269
 Alpha virt. eigenvalues --    0.97670   0.98403   0.98836   0.99514   1.00517
 Alpha virt. eigenvalues --    1.02064   1.03236   1.04065   1.05336   1.06651
 Alpha virt. eigenvalues --    1.07309   1.08132   1.09896   1.10366   1.11070
 Alpha virt. eigenvalues --    1.11798   1.14223   1.16628   1.16947   1.18076
 Alpha virt. eigenvalues --    1.18792   1.19281   1.20109   1.20650   1.20765
 Alpha virt. eigenvalues --    1.20921   1.21446   1.21870   1.22216   1.22521
 Alpha virt. eigenvalues --    1.23202   1.23420   1.23720   1.24354   1.25030
 Alpha virt. eigenvalues --    1.25447   1.26041   1.26510   1.27191   1.27687
 Alpha virt. eigenvalues --    1.27791   1.28333   1.28967   1.29678   1.30460
 Alpha virt. eigenvalues --    1.30527   1.31542   1.32167   1.32742   1.33252
 Alpha virt. eigenvalues --    1.34774   1.35839   1.37183   1.39014   1.39252
 Alpha virt. eigenvalues --    1.39737   1.40466   1.41192   1.42342   1.42914
 Alpha virt. eigenvalues --    1.45166   1.46022   1.46462   1.46933   1.47978
 Alpha virt. eigenvalues --    1.49894   1.50337   1.52216   1.52484   1.53436
 Alpha virt. eigenvalues --    1.54821   1.55468   1.56240   1.58696   1.60024
 Alpha virt. eigenvalues --    1.66462   1.67701   1.70695   2.04766   2.06111
 Alpha virt. eigenvalues --    2.08410   2.10663   2.11821   2.13213   2.14982
 Alpha virt. eigenvalues --    2.16209   2.17513   2.18157   2.18325   2.20603
 Alpha virt. eigenvalues --    2.22114   2.22993   2.23708   2.24458   2.25461
 Alpha virt. eigenvalues --    2.26743   2.27988   2.29407   2.30264   2.31491
 Alpha virt. eigenvalues --    2.32682   2.33266   2.36872   2.37151   2.38416
 Alpha virt. eigenvalues --    2.40513   2.42412   2.43484   2.44262   2.46492
 Alpha virt. eigenvalues --    2.49680   2.51970   2.53139   2.54757   2.58104
 Alpha virt. eigenvalues --    2.58492   2.60714   2.63413   2.64339   2.65342
 Alpha virt. eigenvalues --    2.68739   2.69411   2.70386   2.73047   2.73347
 Alpha virt. eigenvalues --    2.76044   2.76756   2.77374   2.82802   2.84111
 Alpha virt. eigenvalues --    2.86271   2.88091   2.89711   2.89825   2.98411
 Alpha virt. eigenvalues --    3.19721   3.24519   3.30903   3.35310   3.40291
 Alpha virt. eigenvalues --    3.41615   3.91460   3.92687   3.98238   3.99881
 Alpha virt. eigenvalues --    4.01594   4.03109   4.07001   4.19559   4.22256
 Alpha virt. eigenvalues --    5.21613   5.34853   5.43359  35.36167  35.39539
 Alpha virt. eigenvalues --   35.41513  35.42634  35.45618  35.47284  35.50441
 Alpha virt. eigenvalues --   35.51004  35.53223  35.54462  35.60095  35.62637
 Alpha virt. eigenvalues --   35.86622  35.93745  36.02781  36.07144  36.19043
 Alpha virt. eigenvalues --   36.21817  36.91158  36.99057  36.99643  37.03731
 Alpha virt. eigenvalues --   37.07771  37.15938 113.57211 113.59018 120.21627
 Alpha virt. eigenvalues --  120.23543 120.25251 120.25586
          Condensed to atoms (all electrons):
               1          2          3          4          5          6
     1  Bi  22.420879  -0.025310   0.186867   0.141438   0.151870  -0.019221
     2  Bi  -0.025310  22.427659   0.173196  -0.017939  -0.017144   0.109533
     3  Sn   0.186867   0.173196  21.473280  -0.013881   0.105848  -0.015271
     4  Ge   0.141438  -0.017939  -0.013881  31.504366   0.081060   0.062759
     5  Sn   0.151870  -0.017144   0.105848   0.081060  21.362728  -0.022090
     6  Ge  -0.019221   0.109533  -0.015271   0.062759  -0.022090  31.515600
     7  Bi  -0.021571   0.165108   0.143925  -0.027675   0.122897   0.081262
     8  Ge  -0.017213  -0.016306  -0.011531   0.175266   0.142668   0.174428
     9  Bi   0.187603   0.195411  -0.016234   0.143526  -0.016177   0.155596
               7          8          9
     1  Bi  -0.021571  -0.017213   0.187603
     2  Bi   0.165108  -0.016306   0.195411
     3  Sn   0.143925  -0.011531  -0.016234
     4  Ge  -0.027675   0.175266   0.143526
     5  Sn   0.122897   0.142668  -0.016177
     6  Ge   0.081262   0.174428   0.155596
     7  Bi  22.277627   0.160108  -0.024086
     8  Ge   0.160108  31.574305  -0.022615
     9  Bi  -0.024086  -0.022615  22.331345
 Mulliken charges:
               1
     1  Bi  -0.005343
     2  Bi   0.005792
     3  Sn  -0.026199
     4  Ge  -0.048920
     5  Sn   0.088340
     6  Ge  -0.042596
     7  Bi   0.122405
     8  Ge  -0.159110
     9  Bi   0.065632
 Sum of Mulliken charges =   0.00000
 Mulliken charges with hydrogens summed into heavy atoms:
               1
     1  Bi  -0.005343
     2  Bi   0.005792
     3  Sn  -0.026199
     4  Ge  -0.048920
     5  Sn   0.088340
     6  Ge  -0.042596
     7  Bi   0.122405
     8  Ge  -0.159110
     9  Bi   0.065632
 Electronic spatial extent (au):  <R**2>=           6135.0581
 Charge=              0.0000 electrons
 Dipole moment (field-independent basis, Debye):
    X=              0.2382    Y=             -0.8696    Z=             -1.3300  Tot=              1.6068
 Quadrupole moment (field-independent basis, Debye-Ang):
   XX=           -215.3021   YY=           -216.8410   ZZ=           -222.7940
   XY=             -1.6517   XZ=              0.1216   YZ=              0.2491
 Traceless Quadrupole moment (field-independent basis, Debye-Ang):
   XX=              3.0103   YY=              1.4714   ZZ=             -4.4817
   XY=             -1.6517   XZ=              0.1216   YZ=              0.2491
 Octapole moment (field-independent basis, Debye-Ang**2):
  XXX=             27.2687  YYY=            -88.0580  ZZZ=            -77.7207  XYY=             16.1820
  XXY=            -32.7746  XXZ=            -28.2026  XZZ=             18.0408  YZZ=            -32.6607
  YYZ=            -29.9291  XYZ=             -4.0564
 Hexadecapole moment (field-independent basis, Debye-Ang**3):
 XXXX=          -3273.5321 YYYY=          -3324.6799 ZZZZ=          -3064.7278 XXXY=             -0.7847
 XXXZ=             -1.5536 YYYX=             11.3123 YYYZ=              4.1120 ZZZX=             -4.0596
 ZZZY=            -20.2894 XXYY=          -1108.7563 XXZZ=          -1079.6735 YYZZ=          -1065.8677
 XXYZ=            -15.6111 YYXZ=              3.8546 ZZXY=             22.9030
 N-N= 3.568420961571D+03 E-N=-2.472806391237D+04  KE= 6.661946703270D+03
 No NMR shielding tensors so no spin-rotation constants.
 Leave Link  601 at Tue Mar  6 12:24:01 2018, MaxMem=   536870912 cpu:         2.1
 (Enter /share/apps//mg09/l701.exe)
 Compute integral first derivatives.
 ... and contract with generalized density number  0.
   1 Symmetry operations used in ECPInt.
 ECPInt:  NShTT=   10440 NPrTT=   41973 LenC2=    9694 LenP2D=   27415.
 LDataN:  DoStor=T MaxTD1= 9 Len=  602
 Leave Link  701 at Tue Mar  6 12:24:33 2018, MaxMem=   536870912 cpu:       121.4
 (Enter /share/apps//mg09/l702.exe)
 L702 exits ... SP integral derivatives will be done elsewhere.
 Leave Link  702 at Tue Mar  6 12:24:33 2018, MaxMem=   536870912 cpu:         0.1
 (Enter /share/apps//mg09/l703.exe)
 Compute integral first derivatives, UseDBF=F ICtDFT=           0.
 Integral derivatives from FoFJK, PRISM(SPDF).
 Calling FoFJK, ICntrl=      2127 FMM=F ISym2X=0 I1Cent= 0 IOpClX= 0 NMat=1 NMatS=1 NMatT=0.
 FoFJK:  IHMeth= 1 ICntrl=    2127 DoSepK=F KAlg= 0 I1Cent=   0 FoldK=F
 IRaf=         0 NMat=   1 IRICut=       1 DoRegI=T DoRafI=F ISym2E= 0.
 FoFCou: FMM=F IPFlag=           0 FMFlag=      100000 FMFlg1=         800
         NFxFlg=           0 DoJE=F BraDBF=F KetDBF=F FulRan=T
         wScrn=  0.000000 ICntrl=    2127 IOpCl=  0 I1Cent=           0 NGrid=           0
         NMat0=    1 NMatS0=      1 NMatT0=    0 NMatD0=    1 NMtDS0=    0 NMtDT0=    0
 Symmetry not used in FoFCou.
 Defaulting to unpruned grid for atomic number  83.
 Defaulting to unpruned grid for atomic number  83.
 Defaulting to unpruned grid for atomic number  83.
 Defaulting to unpruned grid for atomic number  83.
 Leave Link  703 at Tue Mar  6 12:32:47 2018, MaxMem=   536870912 cpu:      1836.9
 (Enter /share/apps//mg09/l716.exe)
 Dipole        = 9.37132056D-02-3.42123083D-01-5.23253021D-01
 ***** Axes restored to original set *****
 -------------------------------------------------------------------
 Center     Atomic                   Forces (Hartrees/Bohr)
 Number     Number              X              Y              Z
 -------------------------------------------------------------------
      1       83          -0.006807193    0.002236908   -0.004517012
      2       83           0.001009398   -0.006634708   -0.003283856
      3       50           0.001017684   -0.000319411   -0.010771800
      4       32          -0.012995531    0.004698155    0.007900967
      5       50           0.002323569    0.013055130   -0.003980373
      6       32           0.002443713   -0.012547832    0.007221416
      7       83           0.009508670   -0.001893594   -0.002569648
      8       32           0.010649180    0.007528981    0.011780410
      9       83          -0.007149491   -0.006123628   -0.001780103
 -------------------------------------------------------------------
 Cartesian Forces:  Max     0.013055130 RMS     0.007217829
 Force constants in Cartesian coordinates: 
                1             2             3             4             5 
      1  0.154462D+00
      2 -0.969486D-02  0.111672D+00
      3  0.248098D-01 -0.183278D-01  0.142587D+00
      4 -0.221855D-03  0.555760D-02 -0.292139D-02  0.106198D+00
      5  0.575116D-02 -0.336041D-02 -0.203445D-02 -0.117840D-02  0.158434D+00
      6 -0.298385D-02 -0.196430D-02  0.376390D-02 -0.148583D-01  0.263586D-01
      7 -0.435851D-01  0.115501D-01  0.289764D-01 -0.146079D-01  0.271268D-02
      8  0.912265D-02 -0.185319D-01 -0.511692D-02  0.357868D-02 -0.460929D-01
      9 -0.556223D-02  0.414844D-02 -0.325645D-01  0.351990D-02 -0.640161D-02
     10 -0.331462D-01  0.281402D-02 -0.239356D-01  0.405905D-02  0.592374D-02
     11  0.487248D-02 -0.184090D-01  0.860125D-02  0.641781D-03 -0.651595D-03
     12  0.115772D-01 -0.968716D-02 -0.727686D-01  0.363730D-02 -0.856467D-02
     13 -0.476482D-01 -0.336832D-01 -0.752331D-02  0.489585D-02 -0.363195D-02
     14  0.175067D-03 -0.366616D-01  0.802194D-02  0.338924D-02 -0.568597D-02
     15 -0.174785D-01 -0.916521D-02 -0.233723D-01  0.150253D-02  0.106626D-02
     16  0.142418D-02  0.107443D-02  0.503653D-03 -0.150584D-01  0.911100D-03
     17  0.609560D-02  0.276996D-02  0.335955D-02 -0.537213D-03 -0.324494D-01
     18 -0.767841D-02  0.582009D-02  0.443341D-03 -0.527371D-02  0.134094D-01
     19 -0.566040D-02  0.570326D-02 -0.493721D-02 -0.428280D-01  0.317043D-03
     20 -0.110053D-02  0.411316D-02  0.153049D-02 -0.339133D-01 -0.413187D-01
     21  0.108928D-02  0.140403D-02  0.442566D-02 -0.109062D-01 -0.139074D-01
     22  0.125918D-02  0.377400D-02 -0.561608D-02  0.561822D-02 -0.119679D-02
     23 -0.487748D-03  0.473573D-02 -0.361815D-02  0.283934D-02  0.193316D-03
     24 -0.940775D-02  0.665375D-03  0.145543D-02 -0.173224D-02 -0.887796D-02
     25 -0.268836D-01  0.129047D-01 -0.935623D-02 -0.480554D-01 -0.960858D-02
     26 -0.147338D-01 -0.463275D-01  0.758413D-02  0.196222D-01 -0.290679D-01
     27  0.563441D-02  0.271066D-01 -0.239699D-01  0.270321D-01 -0.104814D-02
                6             7             8             9            10 
      6  0.131150D+00
      7  0.313386D-02  0.958382D-01
      8  0.301217D-01 -0.101606D-01  0.984679D-01
      9 -0.335121D-01 -0.706120D-02 -0.744204D-02  0.157931D+00
     10  0.301496D-02  0.407043D-02 -0.739901D-03  0.626721D-02  0.191321D+00
     11 -0.160763D-03  0.214731D-02  0.400555D-02 -0.497275D-02 -0.110828D-01
     12  0.111932D-02  0.215408D-02  0.292080D-02 -0.412794D-02 -0.202588D-01
     13  0.442634D-03 -0.107180D-01  0.104538D-02  0.233428D-02 -0.265919D-01
     14 -0.428392D-02 -0.445140D-02 -0.368036D-01  0.956332D-02  0.795881D-02
     15  0.474054D-02 -0.370036D-02 -0.270666D-01 -0.324661D-01  0.130412D-01
     16  0.445991D-02  0.462262D-02  0.216051D-02 -0.310750D-02 -0.276830D-01
     17 -0.253690D-01 -0.643022D-03  0.406737D-02  0.660487D-02  0.618413D-02
     18 -0.634433D-01  0.374483D-02  0.123169D-02 -0.442635D-02  0.140814D-01
     19  0.558390D-02 -0.415438D-01  0.319383D-02  0.474261D-02 -0.717514D-02
     20 -0.933845D-02  0.681609D-02 -0.148066D-01 -0.810312D-04  0.145113D-02
     21 -0.228940D-01 -0.325951D-01  0.199948D-02 -0.422980D-01  0.239083D-02
     22 -0.470377D-02  0.558717D-02 -0.275407D-02 -0.408790D-02 -0.720422D-01
     23 -0.473067D-02 -0.249890D-02  0.630125D-02 -0.345850D-02  0.103140D-01
     24  0.212445D-02  0.176222D-02  0.882120D-03 -0.510842D-02  0.163244D-01
     25  0.591069D-02  0.336394D-03 -0.544651D-02  0.295483D-02 -0.328120D-01
     26 -0.106331D-01 -0.547227D-02  0.339300D-02  0.203931D-02 -0.228231D-01
     27 -0.230490D-01  0.358533D-02  0.246977D-02 -0.342777D-02 -0.109256D-01
               11            12            13            14            15 
     11  0.162652D+00
     12  0.336061D-01  0.205985D+00
     13 -0.184305D-01  0.139228D-01  0.130673D+00
     14 -0.327637D-01 -0.108467D-01  0.177798D-01  0.205770D+00
     15  0.159264D-01 -0.282690D-01  0.923348D-02 -0.130771D-01  0.133454D+00
     16  0.217397D-01 -0.728722D-02  0.765394D-02  0.997697D-03 -0.161437D-02
     17 -0.341263D-01  0.166417D-01 -0.213146D-02 -0.686584D-02  0.333088D-02
     18 -0.993251D-02 -0.319457D-01  0.122254D-03  0.108419D-01  0.342663D-02
     19  0.508907D-02  0.107853D-01 -0.380162D-01 -0.766886D-02  0.358560D-02
     20  0.637278D-02 -0.261133D-02  0.295927D-01 -0.441949D-01 -0.238027D-02
     21 -0.232711D-02  0.357421D-02 -0.274746D-02  0.496945D-02 -0.156378D-01
     22 -0.122441D-01 -0.247562D-01 -0.219848D-01 -0.905343D-02 -0.548533D-02
     23 -0.272492D-01 -0.458514D-02  0.945424D-02 -0.396469D-01  0.316885D-01
     24 -0.614061D-02 -0.378990D-01 -0.168635D-01 -0.732405D-02 -0.480183D-01
     25  0.726716D-02  0.102255D-01  0.173585D-02 -0.912695D-02  0.915760D-03
     26 -0.598305D-01 -0.168736D-01  0.506871D-05 -0.314723D-02 -0.322858D-03
     27 -0.346000D-01 -0.356680D-01  0.107884D-02  0.213524D-02  0.614205D-02
               16            17            18            19            20 
     16  0.157676D+00
     17  0.186101D-02  0.191726D+00
     18  0.257388D-01 -0.317803D-01  0.207268D+00
     19 -0.378833D-01  0.638883D-02 -0.413188D-02  0.220954D+00
     20 -0.181938D-01 -0.254773D-01  0.179845D-01 -0.356150D-02  0.141015D+00
     21  0.219180D-01  0.113451D-01 -0.333514D-01 -0.140888D-01  0.154339D-01
     22 -0.297043D-01 -0.818336D-03 -0.113294D-01 -0.425202D-01  0.174887D-01
     23 -0.224681D-01 -0.687895D-01 -0.218880D-01 -0.168294D-02 -0.290146D-01
     24 -0.134191D-02  0.198375D-01 -0.386733D-01 -0.399215D-02 -0.212771D-01
     25 -0.610478D-01 -0.163995D-01 -0.152739D-01 -0.532656D-02  0.142050D-02
     26  0.119174D-01 -0.308549D-01  0.143132D-01 -0.777873D-02  0.331108D-02
     27 -0.392693D-01 -0.397024D-02 -0.392976D-01  0.245260D-02  0.739306D-03
               21            22            23            24            25 
     21  0.163429D+00
     22  0.354465D-01  0.152418D+00
     23 -0.197775D-01  0.123421D-01  0.148536D+00
     24 -0.630711D-01  0.206113D-01  0.269138D-01  0.186679D+00
     25 -0.507053D-03  0.136875D-02 -0.781207D-02 -0.536037D-02  0.170684D+00
     26  0.860045D-03 -0.753810D-02  0.493393D-02 -0.467903D-02  0.268013D-01
     27  0.582330D-02 -0.791369D-04 -0.544282D-03  0.251138D-02  0.104908D-01
               26            27 
     26  0.157590D+00
     27  0.771178D-02  0.110935D+00
 Leave Link  716 at Tue Mar  6 12:32:47 2018, MaxMem=   536870912 cpu:         0.3
 (Enter /share/apps//mg09/l103.exe)

 GradGradGradGradGradGradGradGradGradGradGradGradGradGradGradGradGradGrad
 Berny optimization.
 Search for a local minimum.
 Step number   1 out of a maximum of  100
 All quantities printed in internal units (Hartrees-Bohrs-Radians)
 Second derivative matrix not updated -- first step.
 ITU=  0
     Eigenvalues ---    0.07659   0.12045   0.12405   0.12654   0.12906
     Eigenvalues ---    0.13285   0.14979   0.15381   0.16234   0.16489
     Eigenvalues ---    0.18026   0.21795   0.21908   0.23348   0.24349
     Eigenvalues ---    0.25461   0.27163   0.28866   0.30106   0.30926
     Eigenvalues ---    0.32205
 RFO step:  Lambda=-8.28517916D-03 EMin= 7.65879065D-02
 Linear search not attempted -- first point.
 TrRot=  0.000050 -0.000208  0.003148  0.565874  0.000061 -0.565879
 MatCor failed.
 Variable       Old X    -DE/DX   Delta X   Delta X   Delta X     New X
                                 (Linear)    (Quad)   (Total)
    X1        3.76885  -0.00681   0.00000  -0.05133  -0.05120   3.71765
    Y1       -2.36205   0.00224   0.00000   0.02670   0.02653  -2.33552
    Z1        1.67630  -0.00452   0.00000  -0.03166  -0.02862   1.64768
    X2       -1.18731   0.00101   0.00000   0.01221   0.01235  -1.17495
    Y2        4.11524  -0.00663   0.00000  -0.05408  -0.05423   4.06101
    Z2        1.51672  -0.00328   0.00000  -0.02497  -0.02190   1.49482
    X3       -1.05966   0.00102   0.00000   0.01068   0.01095  -1.04871
    Y3       -0.85480  -0.00032   0.00000  -0.00105  -0.00111  -0.85591
    Z3        4.55462  -0.01077   0.00000  -0.08088  -0.07765   4.47697
    X4        2.55444  -0.01300   0.00000  -0.06446  -0.06461   2.48983
    Y4       -2.03558   0.00470   0.00000   0.02326   0.02292  -2.01266
    Z4       -3.74227   0.00790   0.00000   0.04210   0.04519  -3.69708
    X5       -1.05911   0.00232   0.00000   0.01262   0.01265  -1.04646
    Y5       -5.00287   0.01306   0.00000   0.07988   0.07967  -4.92320
    Z5        0.02895  -0.00398   0.00000  -0.02363  -0.02027   0.00868
    X6       -0.98439   0.00244   0.00000   0.01164   0.01150  -0.97288
    Y6        2.53541  -0.01255   0.00000  -0.06349  -0.06382   2.47159
    Z6       -3.98432   0.00722   0.00000   0.03978   0.04290  -3.94143
    X7       -4.64345   0.00951   0.00000   0.05914   0.05919  -4.58426
    Y7       -0.20774  -0.00189   0.00000  -0.00699  -0.00717  -0.21491
    Z7       -0.07470  -0.00257   0.00000  -0.01056  -0.00717  -0.08187
    X8       -2.45788   0.01065   0.00000   0.05642   0.05622  -2.40165
    Y8       -2.30826   0.00753   0.00000   0.03846   0.03812  -2.27013
    Z8       -4.61048   0.01178   0.00000   0.06416   0.06750  -4.54297
    X9        3.68056  -0.00715   0.00000  -0.04706  -0.04705   3.63351
    Y9        2.68048  -0.00612   0.00000  -0.04064  -0.04090   2.63959
    Z9       -1.12304  -0.00178   0.00000  -0.00285   0.00002  -1.12302
         Item               Value     Threshold  Converged?
 Maximum Force            0.013055     0.000450     NO 
 RMS     Force            0.007218     0.000300     NO 
 Maximum Displacement     0.079673     0.001800     NO 
 RMS     Displacement     0.043136     0.001200     NO 
 Predicted change in Energy=-4.351096D-03
 Lowest energy point so far.  Saving SCF results.
 GradGradGradGradGradGradGradGradGradGradGradGradGradGradGradGradGradGrad

 Leave Link  103 at Tue Mar  6 12:32:47 2018, MaxMem=   536870912 cpu:         0.1
 (Enter /share/apps//mg09/l202.exe)
                          Input orientation:                          
 ---------------------------------------------------------------------
 Center     Atomic      Atomic             Coordinates (Angstroms)
 Number     Number       Type             X           Y           Z
 ---------------------------------------------------------------------
      1         83           0        1.967295   -1.235904    0.871914
      2         83           0       -0.621758    2.148994    0.791026
      3         50           0       -0.554953   -0.452929    2.369109
      4         32           0        1.317560   -1.065053   -1.956413
      5         50           0       -0.553764   -2.605244    0.004593
      6         32           0       -0.514828    1.307909   -2.085712
      7         83           0       -2.425886   -0.113728   -0.043325
      8         32           0       -1.270900   -1.201304   -2.404038
      9         83           0        1.922770    1.396809   -0.594277
 ---------------------------------------------------------------------
                    Distance matrix (angstroms):
                    1          2          3          4          5
     1  Bi   0.000000
     2  Bi   4.262308   0.000000
     3  Sn   3.035849   3.043816   0.000000
     4  Ge   2.907022   4.651825   4.753013   0.000000
     5  Sn   2.997178   4.819324   3.197404   3.117624   0.000000
     6  Ge   4.623794   2.999080   4.790364   3.000885   4.436626
     7  Bi   4.625687   3.011798   3.071690   4.310256   3.116856
     8  Ge   4.606405   4.674860   4.884216   2.630410   2.878686
     9  Bi   3.013780   2.993237   4.282790   2.877926   4.744290
                    6          7          8          9
     6  Ge   0.000000
     7  Bi   3.137601   0.000000
     8  Ge   2.639910   2.844253   0.000000
     9  Bi   2.859050   4.636386   4.497216   0.000000
 Stoichiometry    Bi4Ge3Sn2
 Framework group  C1[X(Bi4Ge3Sn2)]
 Deg. of freedom    21
 Full point group                 C1      NOp   1
 RotChk:  IX=0 Diff= 4.89D-03
 Largest Abelian subgroup         C1      NOp   1
 Largest concise Abelian subgroup C1      NOp   1
                         Standard orientation:                         
 ---------------------------------------------------------------------
 Center     Atomic      Atomic             Coordinates (Angstroms)
 Number     Number       Type             X           Y           Z
 ---------------------------------------------------------------------
      1         83           0        1.964652    1.234382   -0.883326
      2         83           0       -0.618910   -2.154370   -0.789300
      3         50           0       -0.559146    0.443772   -2.373881
      4         32           0        1.320460    1.069456    1.946620
      5         50           0       -0.556940    2.601885   -0.014658
      6         32           0       -0.507943   -1.306056    2.085162
      7         83           0       -2.425042    0.107557    0.042868
      8         32           0       -1.267373    1.202739    2.398744
      9         83           0        1.927008   -1.394789    0.589398
 ---------------------------------------------------------------------
 Rotational constants (GHZ):      0.1032986      0.0955529      0.0832951
 Leave Link  202 at Tue Mar  6 12:32:48 2018, MaxMem=   536870912 cpu:         0.1
 (Enter /share/apps//mg09/l301.exe)
 Standard basis: def2TZVP (5D, 7F)
 Ernie: Thresh=  0.10000D-02 Tol=  0.10000D-05 Strict=F.
 There are   519 symmetry adapted cartesian basis functions of A   symmetry.
 There are   444 symmetry adapted basis functions of A   symmetry.
   444 basis functions,   963 primitive gaussians,   519 cartesian basis functions
   116 alpha electrons      116 beta electrons
       nuclear repulsion energy      3625.5274684996 Hartrees.
 IExCor= 1009 DFT=T Ex+Corr=PBE1PBE ExCW=0 ScaHFX=  0.250000
 ScaDFX=  0.750000  0.750000  1.000000  1.000000 ScalE2=  1.000000  1.000000
 IRadAn=      0 IRanWt=     -1 IRanGd=            0 ICorTp=0 IEmpDi=  4
 NAtoms=    9 NActive=    9 NUniq=    9 SFac= 1.00D+00 NAtFMM=   60 NAOKFM=F Big=F
 Integral buffers will be    131072 words long.
 Raffenetti 2 integral format.
 Two-electron integral symmetry is turned on.
 Leave Link  301 at Tue Mar  6 12:32:48 2018, MaxMem=   536870912 cpu:         0.2
 (Enter /share/apps//mg09/l302.exe)
 NPDir=0 NMtPBC=     1 NCelOv=     1 NCel=       1 NClECP=     1 NCelD=      1
         NCelK=      1 NCelE2=     1 NClLst=     1 CellRange=     0.0.
 One-electron integrals computed using PRISM.
   1 Symmetry operations used in ECPInt.
 ECPInt:  NShTT=   10440 NPrTT=   41973 LenC2=    9714 LenP2D=   27601.
 LDataN:  DoStor=T MaxTD1= 8 Len=  415
 NBasis=   444 RedAO= T EigKep=  1.34D-03  NBF=   444
 NBsUse=   444 1.00D-06 EigRej= -1.00D+00 NBFU=   444
 Precomputing XC quadrature grid using
 IXCGrd= 4 IRadAn=           0 IRanWt=          -1 IRanGd=           0 AccXCQ= 0.00D+00.
 Defaulting to unpruned grid for atomic number  83.
 Defaulting to unpruned grid for atomic number  83.
 Defaulting to unpruned grid for atomic number  50.
 Generated NRdTot=       0 NPtTot=           0 NUsed=           0 NTot=          32
 NSgBfM=   502   505   505   506   509 MxSgAt=     9 MxSgA2=     9.
 Leave Link  302 at Tue Mar  6 12:33:02 2018, MaxMem=   536870912 cpu:        51.6
 (Enter /share/apps//mg09/l303.exe)
 DipDrv:  MaxL=1.
 Leave Link  303 at Tue Mar  6 12:33:02 2018, MaxMem=   536870912 cpu:         0.4
 (Enter /share/apps//mg09/l401.exe)
 Initial guess from the checkpoint file:  "Isomer_10.chk"
 B after Tr=     0.000000    0.000000    0.000000
         Rot=    0.999999    0.001101   -0.000886   -0.000758 Ang=   0.18 deg.
 Guess basis will be translated and rotated to current coordinates.
 JPrj=2 DoOrth=T DoCkMO=T.
 Generating alternative initial guess.
 ExpMin= 4.62D-02 ExpMax= 4.66D+05 ExpMxC= 4.50D+03 IAcc=2 IRadAn=         4 AccDes= 0.00D+00
 Harris functional with IExCor= 1009 and IRadAn=       4 diagonalized for initial guess.
 HarFok:  IExCor= 1009 AccDes= 0.00D+00 IRadAn=         4 IDoV= 1 UseB2=F ITyADJ=14
 ICtDFT=  3500011 ScaDFX=  1.000000  1.000000  1.000000  1.000000
 Defaulting to unpruned grid for atomic number  83.
 Defaulting to unpruned grid for atomic number  83.
 Defaulting to unpruned grid for atomic number  83.
 Defaulting to unpruned grid for atomic number  83.
 FoFCou: FMM=F IPFlag=           0 FMFlag=      100000 FMFlg1=           0
         NFxFlg=           0 DoJE=T BraDBF=F KetDBF=T FulRan=T
         wScrn=  0.000000 ICntrl=     500 IOpCl=  0 I1Cent=   200000004 NGrid=           0
         NMat0=    1 NMatS0=      1 NMatT0=    0 NMatD0=    1 NMtDS0=    0 NMtDT0=    0
 Petite list used in FoFCou.
 Harris En= -7518.62638578333    
 Leave Link  401 at Tue Mar  6 12:33:07 2018, MaxMem=   536870912 cpu:        19.3
 (Enter /share/apps//mg09/l502.exe)
 Closed shell SCF:
 Using DIIS extrapolation, IDIIS=  1040.
 Integral symmetry usage will be decided dynamically.
 IVT=     1410107 IEndB=     1410107 NGot=   536870912 MDV=   536322046
 LenX=   536322046 LenY=   536052166
 Requested convergence on RMS density matrix=1.00D-08 within 768 cycles.
 Requested convergence on MAX density matrix=1.00D-06.
 Requested convergence on             energy=1.00D-06.
 No special actions if energy rises.
 Fock matrices will be formed incrementally for  20 cycles.

 Cycle   1  Pass 1  IDiag  1:
 FoFJK:  IHMeth= 1 ICntrl=       0 DoSepK=F KAlg= 0 I1Cent=   0 FoldK=F
 IRaf= 880000000 NMat=   1 IRICut=       1 DoRegI=T DoRafI=F ISym2E= 0.
 FoFCou: FMM=F IPFlag=           0 FMFlag=      100000 FMFlg1=           0
         NFxFlg=           0 DoJE=F BraDBF=F KetDBF=F FulRan=T
         wScrn=  0.000000 ICntrl=       0 IOpCl=  0 I1Cent=           0 NGrid=           0
         NMat0=    1 NMatS0=      1 NMatT0=    0 NMatD0=    1 NMtDS0=    0 NMtDT0=    0
 Symmetry not used in FoFCou.
 Defaulting to unpruned grid for atomic number  83.
 Defaulting to unpruned grid for atomic number  83.
 Defaulting to unpruned grid for atomic number  83.
 Defaulting to unpruned grid for atomic number  83.
 E= -7517.82415968518    
 DIIS: error= 5.77D-03 at cycle   1 NSaved=   1.
 NSaved= 1 IEnMin= 1 EnMin= -7517.82415968518     IErMin= 1 ErrMin= 5.77D-03
 ErrMax= 5.77D-03  0.00D+00 EMaxC= 1.00D-01 BMatC= 7.92D-03 BMatP= 7.92D-03
 IDIUse=3 WtCom= 9.42D-01 WtEn= 5.77D-02
 Coeff-Com:  0.100D+01
 Coeff-En:   0.100D+01
 Coeff:      0.100D+01
 Gap=     7.779 Goal=   None    Shift=    0.000
 GapD=    7.779 DampG=2.000 DampE=1.000 DampFc=2.0000 IDamp=-1.
 RMSDP=1.76D-04 MaxDP=3.76D-03              OVMax= 1.94D-02

 Cycle   2  Pass 1  IDiag  1:
 RMSU=  1.75D-04    CP:  1.00D+00
 E= -7517.82412944219     Delta-E=        0.000030242993 Rises=F Damp=F
 DIIS: error= 1.60D-03 at cycle   2 NSaved=   2.
 NSaved= 2 IEnMin= 1 EnMin= -7517.82415968518     IErMin= 2 ErrMin= 1.60D-03
 ErrMax= 1.60D-03  0.00D+00 EMaxC= 1.00D-01 BMatC= 1.61D-03 BMatP= 7.92D-03
 IDIUse=3 WtCom= 9.84D-01 WtEn= 1.60D-02
 Coeff-Com:  0.208D+00 0.792D+00
 Coeff-En:   0.508D+00 0.492D+00
 Coeff:      0.213D+00 0.787D+00
 Gap=     0.127 Goal=   None    Shift=    0.000
 RMSDP=2.19D-04 MaxDP=8.43D-03 DE= 3.02D-05 OVMax= 1.86D-02

 Cycle   3  Pass 1  IDiag  1:
 RMSU=  2.02D-04    CP:  9.99D-01  5.46D-01
 E= -7517.82160829718     Delta-E=        0.002521145008 Rises=F Damp=F
 DIIS: error= 2.29D-03 at cycle   3 NSaved=   3.
 NSaved= 3 IEnMin= 1 EnMin= -7517.82415968518     IErMin= 2 ErrMin= 1.60D-03
 ErrMax= 2.29D-03  0.00D+00 EMaxC= 1.00D-01 BMatC= 4.14D-03 BMatP= 1.61D-03
 IDIUse=3 WtCom= 1.73D-01 WtEn= 8.27D-01
 Coeff-Com:  0.122D-01 0.613D+00 0.375D+00
 Coeff-En:   0.000D+00 0.686D+00 0.314D+00
 Coeff:      0.211D-02 0.673D+00 0.325D+00
 Gap=     0.128 Goal=   None    Shift=    0.000
 RMSDP=1.32D-04 MaxDP=4.49D-03 DE= 2.52D-03 OVMax= 1.46D-02

 Cycle   4  Pass 1  IDiag  1:
 RMSU=  5.70D-05    CP:  9.99D-01  8.01D-01  4.57D-01
 E= -7517.82517674636     Delta-E=       -0.003568449181 Rises=F Damp=F
 DIIS: error= 6.95D-04 at cycle   4 NSaved=   4.
 NSaved= 4 IEnMin= 4 EnMin= -7517.82517674636     IErMin= 4 ErrMin= 6.95D-04
 ErrMax= 6.95D-04  0.00D+00 EMaxC= 1.00D-01 BMatC= 3.51D-04 BMatP= 1.61D-03
 IDIUse=3 WtCom= 9.93D-01 WtEn= 6.95D-03
 Coeff-Com:  0.288D-03 0.453D+00 0.232D+00 0.315D+00
 Coeff-En:   0.000D+00 0.152D+00 0.000D+00 0.848D+00
 Coeff:      0.286D-03 0.451D+00 0.230D+00 0.319D+00
 Gap=     0.128 Goal=   None    Shift=    0.000
 RMSDP=4.59D-05 MaxDP=2.49D-03 DE=-3.57D-03 OVMax= 4.58D-03

 Cycle   5  Pass 1  IDiag  1:
 RMSU=  1.38D-05    CP:  9.99D-01  8.64D-01  4.23D-01  2.77D-01
 E= -7517.82547253029     Delta-E=       -0.000295783935 Rises=F Damp=F
 DIIS: error= 8.71D-05 at cycle   5 NSaved=   5.
 NSaved= 5 IEnMin= 5 EnMin= -7517.82547253029     IErMin= 5 ErrMin= 8.71D-05
 ErrMax= 8.71D-05  0.00D+00 EMaxC= 1.00D-01 BMatC= 1.28D-05 BMatP= 3.51D-04
 IDIUse=1 WtCom= 1.00D+00 WtEn= 0.00D+00
 Coeff-Com: -0.104D-02 0.220D+00 0.104D+00 0.209D+00 0.469D+00
 Coeff:     -0.104D-02 0.220D+00 0.104D+00 0.209D+00 0.469D+00
 Gap=     0.128 Goal=   None    Shift=    0.000
 RMSDP=9.28D-06 MaxDP=5.74D-04 DE=-2.96D-04 OVMax= 9.67D-04

 Cycle   6  Pass 1  IDiag  1:
 RMSU=  3.71D-06    CP:  9.99D-01  8.74D-01  4.14D-01  3.82D-01  6.40D-01
 E= -7517.82548478342     Delta-E=       -0.000012253124 Rises=F Damp=F
 DIIS: error= 1.32D-05 at cycle   6 NSaved=   6.
 NSaved= 6 IEnMin= 6 EnMin= -7517.82548478342     IErMin= 6 ErrMin= 1.32D-05
 ErrMax= 1.32D-05  0.00D+00 EMaxC= 1.00D-01 BMatC= 3.10D-07 BMatP= 1.28D-05
 IDIUse=1 WtCom= 1.00D+00 WtEn= 0.00D+00
 Coeff-Com: -0.418D-03 0.612D-01 0.305D-01 0.629D-01 0.192D+00 0.654D+00
 Coeff:     -0.418D-03 0.612D-01 0.305D-01 0.629D-01 0.192D+00 0.654D+00
 Gap=     0.128 Goal=   None    Shift=    0.000
 RMSDP=2.51D-06 MaxDP=1.35D-04 DE=-1.23D-05 OVMax= 3.12D-04

 Cycle   7  Pass 1  IDiag  1:
 RMSU=  1.99D-06    CP:  9.99D-01  8.77D-01  4.18D-01  3.77D-01  7.11D-01
                    CP:  8.78D-01
 E= -7517.82548494086     Delta-E=       -0.000000157441 Rises=F Damp=F
 DIIS: error= 1.25D-05 at cycle   7 NSaved=   7.
 NSaved= 7 IEnMin= 7 EnMin= -7517.82548494086     IErMin= 7 ErrMin= 1.25D-05
 ErrMax= 1.25D-05  0.00D+00 EMaxC= 1.00D-01 BMatC= 1.97D-07 BMatP= 3.10D-07
 IDIUse=1 WtCom= 1.00D+00 WtEn= 0.00D+00
 Coeff-Com: -0.110D-03 0.175D-02 0.238D-02 0.744D-02 0.519D-01 0.487D+00
 Coeff-Com:  0.450D+00
 Coeff:     -0.110D-03 0.175D-02 0.238D-02 0.744D-02 0.519D-01 0.487D+00
 Coeff:      0.450D+00
 Gap=     0.128 Goal=   None    Shift=    0.000
 RMSDP=1.69D-06 MaxDP=7.92D-05 DE=-1.57D-07 OVMax= 1.96D-04

 Cycle   8  Pass 1  IDiag  1:
 RMSU=  9.44D-07    CP:  9.99D-01  8.78D-01  4.20D-01  3.78D-01  7.16D-01
                    CP:  1.08D+00  4.50D-01
 E= -7517.82548509307     Delta-E=       -0.000000152213 Rises=F Damp=F
 DIIS: error= 8.18D-06 at cycle   8 NSaved=   8.
 NSaved= 8 IEnMin= 8 EnMin= -7517.82548509307     IErMin= 8 ErrMin= 8.18D-06
 ErrMax= 8.18D-06  0.00D+00 EMaxC= 1.00D-01 BMatC= 7.01D-08 BMatP= 1.97D-07
 IDIUse=1 WtCom= 1.00D+00 WtEn= 0.00D+00
 Coeff-Com:  0.375D-05-0.135D-01-0.533D-02-0.804D-02-0.165D-02 0.274D+00
 Coeff-Com:  0.379D+00 0.376D+00
 Coeff:      0.375D-05-0.135D-01-0.533D-02-0.804D-02-0.165D-02 0.274D+00
 Coeff:      0.379D+00 0.376D+00
 Gap=     0.128 Goal=   None    Shift=    0.000
 RMSDP=7.76D-07 MaxDP=3.76D-05 DE=-1.52D-07 OVMax= 9.09D-05

 Cycle   9  Pass 1  IDiag  1:
 RMSU=  2.73D-07    CP:  9.99D-01  8.79D-01  4.20D-01  3.80D-01  7.23D-01
                    CP:  1.09D+00  6.41D-01  3.79D-01
 E= -7517.82548517635     Delta-E=       -0.000000083277 Rises=F Damp=F
 DIIS: error= 1.50D-06 at cycle   9 NSaved=   9.
 NSaved= 9 IEnMin= 9 EnMin= -7517.82548517635     IErMin= 9 ErrMin= 1.50D-06
 ErrMax= 1.50D-06  0.00D+00 EMaxC= 1.00D-01 BMatC= 3.71D-09 BMatP= 7.01D-08
 IDIUse=1 WtCom= 1.00D+00 WtEn= 0.00D+00
 Coeff-Com:  0.201D-04-0.890D-02-0.375D-02-0.600D-02-0.101D-01 0.101D+00
 Coeff-Com:  0.171D+00 0.240D+00 0.516D+00
 Coeff:      0.201D-04-0.890D-02-0.375D-02-0.600D-02-0.101D-01 0.101D+00
 Coeff:      0.171D+00 0.240D+00 0.516D+00
 Gap=     0.128 Goal=   None    Shift=    0.000
 RMSDP=1.87D-07 MaxDP=1.09D-05 DE=-8.33D-08 OVMax= 2.66D-05

 Cycle  10  Pass 1  IDiag  1:
 RMSU=  9.27D-08    CP:  9.99D-01  8.79D-01  4.20D-01  3.82D-01  7.28D-01
                    CP:  1.09D+00  6.31D-01  4.93D-01  7.96D-01
 E= -7517.82548518058     Delta-E=       -0.000000004235 Rises=F Damp=F
 DIIS: error= 2.30D-07 at cycle  10 NSaved=  10.
 NSaved=10 IEnMin=10 EnMin= -7517.82548518058     IErMin=10 ErrMin= 2.30D-07
 ErrMax= 2.30D-07  0.00D+00 EMaxC= 1.00D-01 BMatC= 8.14D-11 BMatP= 3.71D-09
 IDIUse=1 WtCom= 1.00D+00 WtEn= 0.00D+00
 Coeff-Com:  0.299D-05-0.605D-03-0.246D-03-0.409D-03-0.216D-02-0.286D-02
 Coeff-Com:  0.243D-02 0.171D-01 0.137D+00 0.850D+00
 Coeff:      0.299D-05-0.605D-03-0.246D-03-0.409D-03-0.216D-02-0.286D-02
 Coeff:      0.243D-02 0.171D-01 0.137D+00 0.850D+00
 Gap=     0.128 Goal=   None    Shift=    0.000
 RMSDP=5.77D-08 MaxDP=3.51D-06 DE=-4.23D-09 OVMax= 9.11D-06

 Cycle  11  Pass 1  IDiag  1:
 RMSU=  3.49D-08    CP:  9.99D-01  8.79D-01  4.20D-01  3.82D-01  7.29D-01
                    CP:  1.10D+00  6.40D-01  4.94D-01  8.94D-01  1.04D+00
 E= -7517.82548518054     Delta-E=        0.000000000044 Rises=F Damp=F
 DIIS: error= 1.81D-07 at cycle  11 NSaved=  11.
 NSaved=11 IEnMin=10 EnMin= -7517.82548518058     IErMin=11 ErrMin= 1.81D-07
 ErrMax= 1.81D-07  0.00D+00 EMaxC= 1.00D-01 BMatC= 4.69D-11 BMatP= 8.14D-11
 IDIUse=1 WtCom= 1.00D+00 WtEn= 0.00D+00
 Coeff-Com:  0.492D-07 0.431D-03 0.197D-03 0.282D-03-0.498D-03-0.111D-01
 Coeff-Com: -0.147D-01-0.110D-01 0.395D-01 0.564D+00 0.433D+00
 Coeff:      0.492D-07 0.431D-03 0.197D-03 0.282D-03-0.498D-03-0.111D-01
 Coeff:     -0.147D-01-0.110D-01 0.395D-01 0.564D+00 0.433D+00
 Gap=     0.128 Goal=   None    Shift=    0.000
 RMSDP=2.62D-08 MaxDP=1.51D-06 DE= 4.37D-11 OVMax= 3.09D-06

 Cycle  12  Pass 1  IDiag  1:
 RMSU=  1.74D-08    CP:  9.99D-01  8.79D-01  4.20D-01  3.82D-01  7.29D-01
                    CP:  1.10D+00  6.40D-01  4.99D-01  9.03D-01  1.14D+00
                    CP:  5.40D-01
 E= -7517.82548518049     Delta-E=        0.000000000047 Rises=F Damp=F
 DIIS: error= 1.32D-07 at cycle  12 NSaved=  12.
 NSaved=12 IEnMin=10 EnMin= -7517.82548518058     IErMin=12 ErrMin= 1.32D-07
 ErrMax= 1.32D-07  0.00D+00 EMaxC= 1.00D-01 BMatC= 1.27D-11 BMatP= 4.69D-11
 IDIUse=1 WtCom= 1.00D+00 WtEn= 0.00D+00
 Coeff-Com: -0.415D-06 0.433D-03 0.194D-03 0.283D-03-0.365D-04-0.820D-02
 Coeff-Com: -0.119D-01-0.111D-01 0.709D-02 0.291D+00 0.343D+00 0.389D+00
 Coeff:     -0.415D-06 0.433D-03 0.194D-03 0.283D-03-0.365D-04-0.820D-02
 Coeff:     -0.119D-01-0.111D-01 0.709D-02 0.291D+00 0.343D+00 0.389D+00
 Gap=     0.128 Goal=   None    Shift=    0.000
 RMSDP=1.25D-08 MaxDP=4.78D-07 DE= 4.73D-11 OVMax= 1.37D-06

 Cycle  13  Pass 1  IDiag  1:
 RMSU=  6.57D-09    CP:  9.99D-01  8.79D-01  4.20D-01  3.82D-01  7.29D-01
                    CP:  1.10D+00  6.40D-01  5.00D-01  9.10D-01  1.16D+00
                    CP:  6.80D-01  4.94D-01
 E= -7517.82548518065     Delta-E=       -0.000000000160 Rises=F Damp=F
 DIIS: error= 3.64D-08 at cycle  13 NSaved=  13.
 NSaved=13 IEnMin=13 EnMin= -7517.82548518065     IErMin=13 ErrMin= 3.64D-08
 ErrMax= 3.64D-08  0.00D+00 EMaxC= 1.00D-01 BMatC= 1.64D-12 BMatP= 1.27D-11
 IDIUse=1 WtCom= 1.00D+00 WtEn= 0.00D+00
 Coeff-Com: -0.363D-06 0.237D-03 0.106D-03 0.159D-03 0.120D-03-0.358D-02
 Coeff-Com: -0.567D-02-0.619D-02-0.583D-02 0.854D-01 0.151D+00 0.283D+00
 Coeff-Com:  0.502D+00
 Coeff:     -0.363D-06 0.237D-03 0.106D-03 0.159D-03 0.120D-03-0.358D-02
 Coeff:     -0.567D-02-0.619D-02-0.583D-02 0.854D-01 0.151D+00 0.283D+00
 Coeff:      0.502D+00
 Gap=     0.128 Goal=   None    Shift=    0.000
 RMSDP=4.14D-09 MaxDP=2.46D-07 DE=-1.60D-10 OVMax= 4.67D-07

 SCF Done:  E(RPBE1PBE) =  -7517.82548518     A.U. after   13 cycles
            NFock= 13  Conv=0.41D-08     -V/T= 2.1284
 KE= 6.662167012006D+03 PE=-2.484235093949D+04 EE= 7.036830973801D+03
 Leave Link  502 at Tue Mar  6 12:52:17 2018, MaxMem=   536870912 cpu:      4393.7
 (Enter /share/apps//mg09/l701.exe)
 Compute integral first derivatives.
 ... and contract with generalized density number  0.
   1 Symmetry operations used in ECPInt.
 ECPInt:  NShTT=   10440 NPrTT=   41973 LenC2=    9714 LenP2D=   27601.
 LDataN:  DoStor=T MaxTD1= 9 Len=  602
 Leave Link  701 at Tue Mar  6 12:52:51 2018, MaxMem=   536870912 cpu:       132.6
 (Enter /share/apps//mg09/l702.exe)
 L702 exits ... SP integral derivatives will be done elsewhere.
 Leave Link  702 at Tue Mar  6 12:52:52 2018, MaxMem=   536870912 cpu:         0.1
 (Enter /share/apps//mg09/l703.exe)
 Compute integral first derivatives, UseDBF=F ICtDFT=           0.
 Integral derivatives from FoFJK, PRISM(SPDF).
 Calling FoFJK, ICntrl=      2127 FMM=F ISym2X=0 I1Cent= 0 IOpClX= 0 NMat=1 NMatS=1 NMatT=0.
 FoFJK:  IHMeth= 1 ICntrl=    2127 DoSepK=F KAlg= 0 I1Cent=   0 FoldK=F
 IRaf=         0 NMat=   1 IRICut=       1 DoRegI=T DoRafI=F ISym2E= 0.
 FoFCou: FMM=F IPFlag=           0 FMFlag=      100000 FMFlg1=         800
         NFxFlg=           0 DoJE=F BraDBF=F KetDBF=F FulRan=T
         wScrn=  0.000000 ICntrl=    2127 IOpCl=  0 I1Cent=           0 NGrid=           0
         NMat0=    1 NMatS0=      1 NMatT0=    0 NMatD0=    1 NMtDS0=    0 NMtDT0=    0
 Symmetry not used in FoFCou.
 Defaulting to unpruned grid for atomic number  83.
 Defaulting to unpruned grid for atomic number  83.
 Defaulting to unpruned grid for atomic number  83.
 Defaulting to unpruned grid for atomic number  83.
 Leave Link  703 at Tue Mar  6 12:59:28 2018, MaxMem=   536870912 cpu:      1541.3
 (Enter /share/apps//mg09/l716.exe)
 Dipole        = 1.06129124D-01-3.77785771D-01-5.37304716D-01
 ***** Axes restored to original set *****
 -------------------------------------------------------------------
 Center     Atomic                   Forces (Hartrees/Bohr)
 Number     Number              X              Y              Z
 -------------------------------------------------------------------
      1       83          -0.001130707   -0.000735038   -0.000975105
      2       83          -0.000267878   -0.000517247   -0.000627827
      3       50          -0.000001050   -0.001155097   -0.004421380
      4       32          -0.008001554    0.002705463    0.004106180
      5       50           0.001254359    0.005885886   -0.002255152
      6       32           0.001561223   -0.007374866    0.003545552
      7       83           0.002047143   -0.001079130   -0.001520086
      8       32           0.005841037    0.003571814    0.004909008
      9       83          -0.001302573   -0.001301786   -0.002761190
 -------------------------------------------------------------------
 Cartesian Forces:  Max     0.008001554 RMS     0.003404497
 Leave Link  716 at Tue Mar  6 12:59:28 2018, MaxMem=   536870912 cpu:         0.1
 (Enter /share/apps//mg09/l103.exe)

 GradGradGradGradGradGradGradGradGradGradGradGradGradGradGradGradGradGrad
 Berny optimization.
 Search for a local minimum.
 Step number   2 out of a maximum of  100
 All quantities printed in internal units (Hartrees-Bohrs-Radians)
 Update second derivatives using D2CorN and points    1    2
 DE= -5.93D-03 DEPred=-4.35D-03 R= 1.36D+00
 TightC=F SS=  1.41D+00  RLast= 2.24D-01 DXNew= 5.0454D-01 6.7242D-01
 Trust test= 1.36D+00 RLast= 2.24D-01 DXMaxT set to 5.05D-01
 ITU=  1  0
     Eigenvalues ---    0.07623   0.09495   0.12057   0.12420   0.12661
     Eigenvalues ---    0.12909   0.14068   0.14994   0.16038   0.16476
     Eigenvalues ---    0.18028   0.21752   0.21888   0.22928   0.24240
     Eigenvalues ---    0.25458   0.27101   0.28839   0.30099   0.30934
     Eigenvalues ---    0.32209
 RFO step:  Lambda=-5.14716460D-04 EMin= 7.62315744D-02
 Quartic linear search produced a step of  0.62004.
 TrRot= -0.000056 -0.000031  0.000322 -0.424184 -0.000060  0.424182
 MatCor failed.
 Variable       Old X    -DE/DX   Delta X   Delta X   Delta X     New X
                                 (Linear)    (Quad)   (Total)
    X1        3.71765  -0.00113  -0.03175   0.01377  -0.01813   3.69952
    Y1       -2.33552  -0.00074   0.01645  -0.01216   0.00429  -2.33123
    Z1        1.64768  -0.00098  -0.01775   0.00478  -0.01239   1.63529
    X2       -1.17495  -0.00027   0.00766  -0.00543   0.00210  -1.17285
    Y2        4.06101  -0.00052  -0.03363   0.01772  -0.01590   4.04511
    Z2        1.49482  -0.00063  -0.01358   0.00469  -0.00873   1.48609
    X3       -1.04871   0.00000   0.00679  -0.00912  -0.00262  -1.05133
    Y3       -0.85591  -0.00116  -0.00069  -0.01288  -0.01349  -0.86940
    Z3        4.47697  -0.00442  -0.04815   0.00136  -0.04650   4.43047
    X4        2.48983  -0.00800  -0.04006  -0.01424  -0.05416   2.43566
    Y4       -2.01266   0.00271   0.01421   0.00355   0.01764  -1.99502
    Z4       -3.69708   0.00411   0.02802   0.00720   0.03573  -3.66136
    X5       -1.04646   0.00125   0.00784   0.00131   0.00909  -1.03737
    Y5       -4.92320   0.00589   0.04940   0.00307   0.05244  -4.87075
    Z5        0.00868  -0.00226  -0.01257  -0.00432  -0.01651  -0.00783
[...]
     X                             X          X    X X            X                                                                  
     X                             X          X      X            X                                                                  
     X                             X          X      X            X                                                                  
     X                             X          X      X                                                                               
     X                             X          X      X                                                                               
     X                                        X      X                                                                               
     X                                        X                                                                                      
     X                                        X                                                                                      
     X                                        X                                                                                      
     X                                        X                                                                                      
     X                                                                                                                               
     X                                                                                                                               
     X                                                                                                                               
     X                                                                                                                               
     X                                                                                                                               
 
 ***** Axes restored to original set *****
 -------------------------------------------------------------------
 Center     Atomic                   Forces (Hartrees/Bohr)
 Number     Number              X              Y              Z
 -------------------------------------------------------------------
      1       83          -0.000080569   -0.000028308   -0.000005630
      2       83          -0.000055765    0.000026833    0.000034101
      3       50          -0.000013914    0.000025463    0.000118837
      4       32           0.000004314    0.000034330   -0.000101522
      5       50           0.000020943    0.000015206   -0.000008217
      6       32          -0.000011467   -0.000046974   -0.000082968
      7       83           0.000126249   -0.000056319   -0.000023467
      8       32           0.000013507   -0.000001366    0.000052413
      9       83          -0.000003298    0.000031135    0.000016451
 -------------------------------------------------------------------
 Cartesian Forces:  Max     0.000126249 RMS     0.000051850
 Force constants in Cartesian coordinates: 
                1             2             3             4             5 
      1  0.727822D-01
      2 -0.908200D-03  0.523787D-01
      3  0.126057D-01 -0.151501D-01  0.604338D-01
      4 -0.205772D-02  0.491678D-02  0.292693D-02  0.581613D-01
      5 -0.211060D-03 -0.411999D-02 -0.115733D-02  0.572559D-02  0.770991D-01
      6 -0.612110D-03  0.349201D-02  0.527795D-03 -0.143087D-01  0.156919D-01
      7 -0.275726D-01  0.615690D-02  0.119437D-01 -0.428940D-03  0.897575D-03
      8  0.810506D-02 -0.163938D-02 -0.482260D-02 -0.945544D-03 -0.274701D-01
      9  0.110133D-01 -0.368055D-02 -0.115151D-01  0.566433D-05  0.118517D-01
     10 -0.622597D-02  0.176333D-02 -0.743547D-02 -0.171189D-02  0.671243D-03
     11  0.240327D-02  0.145386D-02  0.180889D-02  0.807445D-02 -0.372436D-03
     12 -0.577845D-02  0.181718D-02 -0.292546D-01  0.214316D-02  0.511723D-03
     13 -0.280172D-01 -0.141546D-01 -0.118265D-01 -0.163969D-02  0.146929D-02
     14 -0.124678D-01 -0.911968D-02 -0.179628D-02 -0.265355D-02 -0.449130D-02
     15 -0.109557D-01 -0.408675D-02 -0.334551D-02 -0.135336D-02 -0.186024D-02
     16  0.118281D-02  0.768398D-02 -0.491360D-02  0.287602D-02  0.111330D-02
     17  0.104461D-02 -0.239734D-02  0.728346D-03  0.588731D-04 -0.641416D-02
     18  0.101383D-02  0.216127D-02 -0.521687D-02  0.224805D-03 -0.530495D-02
     19 -0.382973D-02 -0.174938D-02  0.328691D-03 -0.193277D-01 -0.194003D-01
     20  0.150585D-02 -0.170918D-02 -0.134222D-02 -0.203763D-01 -0.261130D-01
     21 -0.252832D-02  0.691417D-03  0.233869D-02 -0.377625D-02 -0.972303D-02
     22 -0.302164D-02 -0.201832D-02 -0.148433D-02  0.768040D-03  0.169342D-02
     23  0.693873D-03 -0.605808D-03  0.188414D-02 -0.286234D-02 -0.225198D-02
     24 -0.105242D-02 -0.123357D-02 -0.324118D-02 -0.253422D-02 -0.160076D-02
     25 -0.324023D-02 -0.169044D-02 -0.214515D-02 -0.366394D-01  0.804091D-02
     26 -0.165606D-03 -0.342412D-01  0.198472D-01  0.806208D-02 -0.586611D-02
     27 -0.370590D-02  0.159891D-01 -0.107270D-01  0.166720D-01 -0.840906D-02
                6             7             8             9            10 
      6  0.486592D-01
      7 -0.530143D-03  0.422936D-01
      8  0.121209D-01 -0.980673D-02  0.397446D-01
      9 -0.114066D-01 -0.274421D-02 -0.638823D-02  0.679311D-01
     10 -0.288077D-03 -0.354163D-03 -0.366303D-03  0.465865D-04  0.705761D-01
     11 -0.472652D-02 -0.270882D-02 -0.184807D-02  0.718276D-03  0.394100D-02
     12 -0.467033D-02  0.546805D-02 -0.393274D-02 -0.377986D-02  0.315399D-02
     13 -0.198682D-02  0.367528D-02 -0.148576D-03  0.129427D-02 -0.460316D-02
     14  0.234749D-02  0.184741D-03 -0.888650D-02 -0.667436D-02 -0.420274D-02
     15  0.139998D-02  0.213939D-03 -0.797988D-02 -0.113016D-01  0.679626D-02
     16  0.263014D-02 -0.221537D-02 -0.193198D-02  0.155647D-02 -0.286281D-02
     17 -0.275891D-02  0.337551D-04  0.164265D-02  0.128443D-03  0.730692D-02
     18 -0.192729D-01 -0.289871D-02  0.664265D-02 -0.464164D-02  0.190479D-02
     19 -0.486682D-02 -0.149745D-01  0.491883D-02 -0.119671D-01 -0.588957D-02
     20 -0.135363D-01  0.496836D-02  0.121367D-02  0.310613D-02  0.333333D-02
     21 -0.269801D-02 -0.136045D-01  0.183278D-02 -0.198629D-01  0.650177D-02
     22  0.572446D-03  0.770722D-03  0.228330D-03  0.150235D-02 -0.428982D-01
     23 -0.404899D-02  0.669118D-03 -0.179278D-02  0.863531D-03 -0.240400D-02
     24 -0.200637D-02 -0.257263D-02 -0.131201D-02 -0.314605D-02 -0.631694D-02
     25  0.193901D-01 -0.119400D-02 -0.530830D-04 -0.707325D-03 -0.603032D-02
     26 -0.858161D-02 -0.394892D-03 -0.964073D-03  0.750518D-04 -0.100428D-01
     27 -0.105327D-01  0.472454D-02  0.383910D-02 -0.227738D-02 -0.436291D-02
               11            12            13            14            15 
     11  0.439978D-01
     12  0.133742D-01  0.602434D-01
     13 -0.588412D-02  0.764328D-02  0.473576D-01
     14 -0.539364D-02  0.175682D-02  0.657999D-02  0.653183D-01
     15  0.482106D-02 -0.635543D-02  0.110535D-01 -0.641976D-02  0.439146D-01
     16  0.929961D-02 -0.962438D-03 -0.466004D-02 -0.136421D-02  0.187864D-02
     17 -0.791909D-02  0.277821D-02  0.242534D-02 -0.588786D-02  0.442269D-02
     18 -0.388004D-03 -0.497508D-02  0.182598D-03  0.536973D-03 -0.265003D-02
     19 -0.570063D-03  0.212302D-02 -0.116156D-01  0.109626D-01 -0.177287D-02
     20 -0.598250D-02 -0.271853D-03  0.128395D-01 -0.179015D-01 -0.608355D-03
     21 -0.430435D-03 -0.339790D-02 -0.208452D-02 -0.316332D-03  0.215838D-02
     22 -0.596217D-02 -0.120926D-01 -0.195761D-02  0.220905D-02 -0.697558D-02
     23  0.740326D-03 -0.209816D-02  0.318614D-02 -0.781934D-02  0.130082D-01
     24 -0.100434D-02 -0.398221D-02 -0.867679D-02  0.105336D-01 -0.224888D-01
     25 -0.859316D-02 -0.169803D-02  0.146036D-02  0.751902D-03  0.111517D-02
     26 -0.246762D-01 -0.139353D-01 -0.631288D-02 -0.581847D-02 -0.129697D-02
     27 -0.141731D-01 -0.382800D-02  0.440097D-02  0.318166D-04 -0.133160D-02
               16            17            18            19            20 
     16  0.446539D-01
     17  0.816284D-02  0.635849D-01
     18  0.153772D-01 -0.580675D-02  0.542900D-01
     19 -0.726574D-02 -0.376809D-02  0.405480D-02  0.798336D-01
     20 -0.463717D-02 -0.971339D-03  0.731274D-02  0.215348D-02  0.539218D-01
     21  0.311720D-02  0.435717D-02 -0.698985D-02  0.320410D-03  0.143649D-01
     22 -0.441742D-02 -0.110493D-01 -0.359606D-02 -0.110397D-01  0.561501D-02
     23 -0.140862D-01 -0.382105D-01 -0.648304D-02  0.506979D-02 -0.519920D-02
     24 -0.166259D-02 -0.327071D-02 -0.243280D-02  0.111511D-01 -0.131007D-01
     25 -0.272914D-01 -0.421495D-02 -0.162632D-01 -0.589110D-02 -0.540196D-02
     26 -0.424015D-02 -0.342732D-02  0.132913D-02  0.238310D-02  0.274124D-02
     27 -0.170210D-01 -0.578496D-03 -0.811078D-02  0.628805D-03  0.407569D-02
               21            22            23            24            25 
     21  0.561347D-01
     22  0.130792D-01  0.661976D-01
     23 -0.122248D-01  0.961519D-02  0.587780D-01
     24 -0.275234D-01  0.110069D-01  0.114697D-01  0.682008D-01
     25 -0.102492D-02 -0.440181D-02  0.118447D-03  0.657514D-03  0.832279D-01
     26  0.144833D-02 -0.331219D-03 -0.363879D-02 -0.481174D-03  0.110423D-01
     27 -0.159647D-03 -0.201237D-02 -0.237050D-02 -0.338000D-02  0.675829D-03
               26            27 
     26  0.758910D-01
     27  0.159541D-02  0.403471D-01
 Leave Link  716 at Tue Mar  6 17:48:39 2018, MaxMem=   536870912 cpu:         0.1
 (Enter /share/apps//mg09/l103.exe)

 GradGradGradGradGradGradGradGradGradGradGradGradGradGradGradGradGradGrad
 Berny optimization.
 Search for a local minimum.
 Step number   1 out of a maximum of    2
 All quantities printed in internal units (Hartrees-Bohrs-Radians)
 Second derivative matrix not updated -- analytic derivatives used.
 ITU=  0
     Eigenvalues ---    0.01122   0.02100   0.02779   0.03778   0.04289
     Eigenvalues ---    0.04523   0.05244   0.05703   0.05867   0.06232
     Eigenvalues ---    0.06327   0.07324   0.08340   0.09393   0.09912
     Eigenvalues ---    0.10531   0.11637   0.12414   0.13195   0.13839
     Eigenvalues ---    0.14875
 Angle between quadratic step and forces=  37.34 degrees.
 Linear search not attempted -- first point.
 TrRot=  0.000019  0.000005 -0.000075  0.000001  0.000003  0.000001
 Variable       Old X    -DE/DX   Delta X   Delta X   Delta X     New X
                                 (Linear)    (Quad)   (Total)
    X1        3.72640  -0.00008   0.00000  -0.00160  -0.00157   3.72483
    Y1       -2.32949  -0.00003   0.00000  -0.00171  -0.00169  -2.33118
    Z1        1.64757  -0.00001   0.00000  -0.00063  -0.00071   1.64685
    X2       -1.16437  -0.00006   0.00000  -0.00132  -0.00131  -1.16567
    Y2        4.04682   0.00003   0.00000   0.00092   0.00092   4.04774
    Z2        1.49832   0.00003   0.00000   0.00004  -0.00003   1.49828
    X3       -1.06484  -0.00001   0.00000   0.00062   0.00065  -1.06418
    Y3       -0.89444   0.00003   0.00000   0.00160   0.00160  -0.89284
    Z3        4.40558   0.00012   0.00000   0.00213   0.00206   4.40763
    X4        2.39889   0.00000   0.00000  -0.00001   0.00001   2.39890
    Y4       -1.97898   0.00003   0.00000   0.00171   0.00172  -1.97726
    Z4       -3.62813  -0.00010   0.00000  -0.00230  -0.00238  -3.63051
    X5       -1.01485   0.00002   0.00000  -0.00024  -0.00020  -1.01505
    Y5       -4.85622   0.00002   0.00000  -0.00035  -0.00034  -4.85656
    Z5       -0.01757  -0.00001   0.00000  -0.00013  -0.00021  -0.01778
    X6       -0.94813  -0.00001   0.00000   0.00129   0.00129  -0.94684
    Y6        2.38362  -0.00005   0.00000  -0.00088  -0.00088   2.38273
    Z6       -3.88994  -0.00008   0.00000  -0.00177  -0.00185  -3.89178
    X7       -4.58953   0.00013   0.00000   0.00184   0.00186  -4.58767
    Y7       -0.19688  -0.00006   0.00000  -0.00085  -0.00086  -0.19773
    Z7       -0.10031  -0.00002   0.00000   0.00062   0.00056  -0.09976
    X8       -2.36651   0.00001   0.00000  -0.00033  -0.00031  -2.36683
    Y8       -2.25307   0.00000   0.00000  -0.00043  -0.00043  -2.25350
    Z8       -4.50386   0.00005   0.00000   0.00060   0.00053  -4.50333
    X9        3.63499   0.00000   0.00000  -0.00043  -0.00043   3.63457
    Y9        2.63848   0.00003   0.00000  -0.00006  -0.00004   2.63844
    Z9       -1.16988   0.00002   0.00000   0.00212   0.00204  -1.16784
         Item               Value     Threshold  Converged?
 Maximum Force            0.000126     0.000450     YES
 RMS     Force            0.000052     0.000300     YES
 Maximum Displacement     0.002382     0.001800     NO 
 RMS     Displacement     0.001213     0.001200     NO 
 Predicted change in Energy=-6.768316D-07
 GradGradGradGradGradGradGradGradGradGradGradGradGradGradGradGradGradGrad

 Leave Link  103 at Tue Mar  6 17:48:39 2018, MaxMem=   536870912 cpu:         0.1
 (Enter /share/apps//mg09/l9999.exe)
 1\1\GINC-COMPUTE-0-11\Freq\RPBE1PBE\def2TZVP\Bi4Ge3Sn2\RODRIGO\06-Mar-
 2018\0\\#P Geom=AllCheck Guess=TCheck SCRF=Check GenChk RPBE1PBE/def2T
 ZVP Freq\\01Final_coords.xyz_10\\0,1\Bi,1.9719252476,-1.2327122086,0.8
 718538611\Bi,-0.616155603,2.1414847349,0.7928752462\Sn,-0.5634872803,-
 0.4733197786,2.3313305153\Ge,1.2694376045,-1.0472288443,-1.9199251744\
 Sn,-0.5370336604,-2.5697985684,-0.0092995566\Ge,-0.5017275468,1.261354
 8457,-2.0584649797\Bi,-2.4286745006,-0.1041828318,-0.0530825195\Ge,-1.
 2523034044,-1.1922708471,-2.3833389456\Bi,1.923554144,1.3962244981,-0.
 6190714468\\Version=ES64L-G09RevD.01\State=1-A\HF=-7517.8272189\RMSD=8
 .889e-10\RMSF=5.185e-05\ZeroPoint=0.0058856\Thermal=0.0233037\Dipole=0
 .1132025,0.4068883,0.5461936\DipoleDeriv=-0.0358082,-0.093615,0.107546
 5,-0.0820811,-0.0400188,-0.0286318,0.0277502,0.0274835,-0.1894979,-0.0
 562377,-0.0905651,0.0059152,-0.0497255,-0.0257052,0.0658142,0.0442152,
 0.0219492,-0.1483235,-0.0082097,0.043799,-0.1047199,0.0453126,-0.03732
 29,-0.0622072,-0.0690706,-0.0247376,0.297927,-0.0405989,-0.0572657,-0.
 1007394,-0.0414388,-0.0499002,0.0030771,-0.0043817,-0.0513614,-0.01671
 74,0.0562566,0.0604148,-0.0271944,0.0318567,0.3502606,0.0117741,-0.011
 2458,-0.0183575,-0.0217572,0.0052039,-0.0240299,0.0200295,0.005817,0.0
 101145,-0.0524685,-0.0485481,0.0163885,0.0072063,0.1196308,-0.0004732,
 -0.0198671,0.0076662,-0.034654,-0.0559297,0.0349634,-0.0330868,-0.0507
 853,-0.0748105,0.055488,0.1896493,0.0532862,-0.1459661,0.1630315,0.070
 4346,0.0884541,0.0740907,0.0345737,0.106247,-0.0706196,0.0293067,-0.02
 68078,-0.0444597,-0.0441171,-0.0267319,0.0478574\Polar=373.6866919,1.9
 584553,382.4128982,-0.3838593,-0.0355006,376.2285484\PG=C01 [X(Bi4Ge3S
 n2)]\NImag=0\\0.07278224,-0.00090820,0.05237874,0.01260569,-0.01515013
 ,0.06043380,-0.00205772,0.00491678,0.00292693,0.05816134,-0.00021106,-
 0.00411999,-0.00115733,0.00572559,0.07709908,-0.00061211,0.00349201,0.
 00052779,-0.01430874,0.01569193,0.04865919,-0.02757258,0.00615690,0.01
 194371,-0.00042894,0.00089758,-0.00053014,0.04229359,0.00810506,-0.001
 63938,-0.00482260,-0.00094554,-0.02747013,0.01212093,-0.00980673,0.039
 74462,0.01101334,-0.00368055,-0.01151514,0.00000566,0.01185171,-0.0114
 0663,-0.00274421,-0.00638823,0.06793115,-0.00622597,0.00176333,-0.0074
 3547,-0.00171189,0.00067124,-0.00028808,-0.00035416,-0.00036630,0.0000
 4659,0.07057611,0.00240327,0.00145386,0.00180889,0.00807445,-0.0003724
 4,-0.00472652,-0.00270882,-0.00184807,0.00071828,0.00394100,0.04399778
 ,-0.00577845,0.00181718,-0.02925459,0.00214316,0.00051172,-0.00467033,
 0.00546805,-0.00393274,-0.00377986,0.00315399,0.01337417,0.06024338,-0
 .02801717,-0.01415464,-0.01182646,-0.00163969,0.00146929,-0.00198682,0
 .00367528,-0.00014858,0.00129427,-0.00460316,-0.00588412,0.00764328,0.
 04735762,-0.01246780,-0.00911968,-0.00179628,-0.00265355,-0.00449130,0
 .00234749,0.00018474,-0.00888650,-0.00667436,-0.00420274,-0.00539364,0
 .00175682,0.00657999,0.06531828,-0.01095566,-0.00408675,-0.00334551,-0
 .00135336,-0.00186024,0.00139998,0.00021394,-0.00797988,-0.01130156,0.
 00679626,0.00482106,-0.00635543,0.01105347,-0.00641976,0.04391457,0.00
 118281,0.00768398,-0.00491360,0.00287602,0.00111330,0.00263014,-0.0022
 1537,-0.00193198,0.00155647,-0.00286281,0.00929961,-0.00096244,-0.0046
 6004,-0.00136421,0.00187864,0.04465394,0.00104461,-0.00239734,0.000728
 35,0.00005887,-0.00641416,-0.00275891,0.00003376,0.00164265,0.00012844
 ,0.00730692,-0.00791909,0.00277821,0.00242534,-0.00588786,0.00442269,0
 .00816284,0.06358492,0.00101383,0.00216127,-0.00521687,0.00022481,-0.0
 0530495,-0.01927291,-0.00289871,0.00664265,-0.00464164,0.00190479,-0.0
 0038800,-0.00497508,0.00018260,0.00053697,-0.00265003,0.01537715,-0.00
 580675,0.05428996,-0.00382973,-0.00174938,0.00032869,-0.01932774,-0.01
 940028,-0.00486682,-0.01497454,0.00491883,-0.01196715,-0.00588957,-0.0
 0057006,0.00212302,-0.01161557,0.01096262,-0.00177287,-0.00726574,-0.0
 0376809,0.00405480,0.07983365,0.00150585,-0.00170918,-0.00134222,-0.02
 037634,-0.02611297,-0.01353631,0.00496836,0.00121367,0.00310613,0.0033
 3333,-0.00598250,-0.00027185,0.01283946,-0.01790149,-0.00060835,-0.004
 63717,-0.00097134,0.00731274,0.00215348,0.05392178,-0.00252832,0.00069
 142,0.00233869,-0.00377625,-0.00972303,-0.00269801,-0.01360455,0.00183
 278,-0.01986289,0.00650177,-0.00043044,-0.00339790,-0.00208452,-0.0003
 1633,0.00215838,0.00311720,0.00435717,-0.00698985,0.00032041,0.0143649
 3,0.05613466,-0.00302164,-0.00201832,-0.00148433,0.00076804,0.00169342
 ,0.00057245,0.00077072,0.00022833,0.00150235,-0.04289823,-0.00596217,-
 0.01209259,-0.00195761,0.00220905,-0.00697558,-0.00441742,-0.01104929,
 -0.00359606,-0.01103965,0.00561501,0.01307919,0.06619761,0.00069387,-0
 .00060581,0.00188414,-0.00286234,-0.00225198,-0.00404899,0.00066912,-0
 .00179278,0.00086353,-0.00240400,0.00074033,-0.00209816,0.00318614,-0.
 00781934,0.01300820,-0.01408621,-0.03821045,-0.00648304,0.00506979,-0.
 00519920,-0.01222483,0.00961519,0.05877803,-0.00105242,-0.00123357,-0.
 00324118,-0.00253422,-0.00160076,-0.00200637,-0.00257263,-0.00131201,-
 0.00314605,-0.00631694,-0.00100434,-0.00398221,-0.00867679,0.01053363,
 -0.02248879,-0.00166259,-0.00327071,-0.00243280,0.01115112,-0.01310075
 ,-0.02752343,0.01100695,0.01146967,0.06820082,-0.00324023,-0.00169044,
 -0.00214515,-0.03663943,0.00804091,0.01939012,-0.00119400,-0.00005308,
 -0.00070733,-0.00603032,-0.00859316,-0.00169803,0.00146036,0.00075190,
 0.00111517,-0.02729139,-0.00421495,-0.01626320,-0.00589110,-0.00540196
 ,-0.00102492,-0.00440181,0.00011845,0.00065751,0.08322793,-0.00016561,
 -0.03424121,0.01984718,0.00806208,-0.00586611,-0.00858161,-0.00039489,
 -0.00096407,0.00007505,-0.01004278,-0.02467623,-0.01393535,-0.00631288
 ,-0.00581847,-0.00129697,-0.00424015,-0.00342732,0.00132913,0.00238310
 ,0.00274124,0.00144833,-0.00033122,-0.00363879,-0.00048117,0.01104234,
 0.07589098,-0.00370590,0.01598913,-0.01072699,0.01667202,-0.00840906,-
 0.01053271,0.00472454,0.00383910,-0.00227738,-0.00436291,-0.01417309,-
 0.00382800,0.00440097,0.00003182,-0.00133160,-0.01702097,-0.00057850,-
 0.00811078,0.00062880,0.00407569,-0.00015965,-0.00201237,-0.00237050,-
 0.00338000,0.00067583,0.00159541,0.04034711\\0.00008057,0.00002831,0.0
 0000563,0.00005576,-0.00002683,-0.00003410,0.00001391,-0.00002546,-0.0
 0011884,-0.00000431,-0.00003433,0.00010152,-0.00002094,-0.00001521,0.0
 0000822,0.00001147,0.00004697,0.00008297,-0.00012625,0.00005632,0.0000
 2347,-0.00001351,0.00000137,-0.00005241,0.00000330,-0.00003113,-0.0000
 1645\\\@


 If your ship doesn't come in, swim out to it!
                          -- Jonathan Winters
 Job cpu time:       0 days  7 hours 56 minutes  5.0 seconds.
 File lengths (MBytes):  RWF=    299 Int=      0 D2E=      0 Chk=     16 Scr=      1
 Normal termination of Gaussian 09 at Tue Mar  6 17:48:41 2018.
