 Entering Gaussian System, Link 0=/share/apps/mg09/g09
 Initial command:
 /share/apps//mg09/l1.exe "/state/partition1/gauss_tmp/Gau-6590.inp" -scrdir="/state/partition1/gauss_tmp/"
 Entering Link 1 = /share/apps//mg09/l1.exe PID=      6592.
  
 Copyright (c) 1988,1990,1992,1993,1995,1998,2003,2009,2013,
            Gaussian, Inc.  All Rights Reserved.
  
 This is part of the Gaussian(R) 09 program.  It is based on
 the Gaussian(R) 03 system (copyright 2003, Gaussian, Inc.),
 the Gaussian(R) 98 system (copyright 1998, Gaussian, Inc.),
 the Gaussian(R) 94 system (copyright 1995, Gaussian, Inc.),
 the Gaussian 92(TM) system (copyright 1992, Gaussian, Inc.),
 the Gaussian 90(TM) system (copyright 1990, Gaussian, Inc.),
 the Gaussian 88(TM) system (copyright 1988, Gaussian, Inc.),
 the Gaussian 86(TM) system (copyright 1986, Carnegie Mellon
 University), and the Gaussian 82(TM) system (copyright 1983,
 Carnegie Mellon University). Gaussian is a federally registered
 trademark of Gaussian, Inc.
  
 This software contains proprietary and confidential information,
 including trade secrets, belonging to Gaussian, Inc.
  
 This software is provided under written license and may be
 used, copied, transmitted, or stored only in accord with that
 written license.
  
 The following legend is applicable only to US Government
 contracts under FAR:
  
                    RESTRICTED RIGHTS LEGEND
  
 Use, reproduction and disclosure by the US Government is
 subject to restrictions as set forth in subparagraphs (a)
 and (c) of the Commercial Computer Software - Restricted
 Rights clause in FAR 52.227-19.
  
 Gaussian, Inc.
 340 Quinnipiac St., Bldg. 40, Wallingford CT 06492
  
  
 ---------------------------------------------------------------
 Warning -- This program may not be used in any manner that
 competes with the business of Gaussian, Inc. or will provide
 assistance to any competitor of Gaussian, Inc.  The licensee
 of this program is prohibited from giving any competitor of
 Gaussian, Inc. access to this program.  By using this program,
 the user acknowledges that Gaussian, Inc. is engaged in the
 business of creating and licensing software in the field of
 computational chemistry and represents and warrants to the
 licensee that it is not a competitor of Gaussian, Inc. and that
 it will not use this program in any manner prohibited above.
 ---------------------------------------------------------------
  

 Cite this work as:
 Gaussian 09, Revision D.01,
 M. J. Frisch, G. W. Trucks, H. B. Schlegel, G. E. Scuseria, 
 M. A. Robb, J. R. Cheeseman, G. Scalmani, V. Barone, B. Mennucci, 
 G. A. Petersson, H. Nakatsuji, M. Caricato, X. Li, H. P. Hratchian, 
 A. F. Izmaylov, J. Bloino, G. Zheng, J. L. Sonnenberg, M. Hada, 
 M. Ehara, K. Toyota, R. Fukuda, J. Hasegawa, M. Ishida, T. Nakajima, 
 Y. Honda, O. Kitao, H. Nakai, T. Vreven, J. A. Montgomery, Jr., 
 J. E. Peralta, F. Ogliaro, M. Bearpark, J. J. Heyd, E. Brothers, 
 K. N. Kudin, V. N. Staroverov, T. Keith, R. Kobayashi, J. Normand, 
 K. Raghavachari, A. Rendell, J. C. Burant, S. S. Iyengar, J. Tomasi, 
 M. Cossi, N. Rega, J. M. Millam, M. Klene, J. E. Knox, J. B. Cross, 
 V. Bakken, C. Adamo, J. Jaramillo, R. Gomperts, R. E. Stratmann, 
 O. Yazyev, A. J. Austin, R. Cammi, C. Pomelli, J. W. Ochterski, 
 R. L. Martin, K. Morokuma, V. G. Zakrzewski, G. A. Voth, 
 P. Salvador, J. J. Dannenberg, S. Dapprich, A. D. Daniels, 
 O. Farkas, J. B. Foresman, J. V. Ortiz, J. Cioslowski, 
 and D. J. Fox, Gaussian, Inc., Wallingford CT, 2013.
 
 ******************************************
 Gaussian 09:  ES64L-G09RevD.01 24-Apr-2013
                 6-Mar-2018 
 ******************************************
 %NProcShared=4
 Will use up to    4 processors via shared memory.
 %LindaWorkers=compute-0-5
 %chk=Isomer_39.chk
 %NProc=4
 Will use up to    4 processors via shared memory.
 %mem=4GB
 SetLPE:  input flags=" -vv -opt "Tsnet.Node.lindarsharg: ssh" "
 SetLPE:    new flags=" -vv -opt "Tsnet.Node.lindarsharg: ssh"  -nodelist 'compute-0-5.local'"
 Will use up to    1 processors via Linda.
 ----------------------------------------------------------------------
 #p PBE1PBE/Def2TZVP scf=(maxcycle=768) opt=(cartesian,maxcycle=512) fr
 eq
 ----------------------------------------------------------------------
 1/6=512,10=7,14=-1,18=10,26=3,38=1/1,3;
 2/12=2,17=6,18=5,29=2,40=1/2;
 3/5=44,7=101,11=2,16=1,25=1,30=1,71=1,74=-13/1,2,3;
 4//1;
 5/5=2,7=768,38=5/2;
 6/7=2,8=2,9=2,10=2,28=1/1;
 7/7=1,29=1/1,2,3,16;
 1/6=512,10=7,14=-1,18=10,26=3/3(2);
 2/29=1/2;
 99/12=1/99;
 2/29=1/2;
 3/5=44,7=101,11=2,16=1,25=1,30=1,71=1,74=-13/1,2,3;
 4/5=5,16=3,69=1/1;
 5/5=2,7=768,38=5/2;
 7/7=1/1,2,3,16;
 1/6=512,14=-1,18=10,26=3/3(-5);
 2/29=1/2;
 6/7=2,8=2,9=2,10=2,19=2,28=1/1;
 99/9=1,12=1/99;
 Leave Link    1 at Tue Mar  6 14:40:28 2018, MaxMem=   536870912 cpu:         0.2
 (Enter /share/apps//mg09/l101.exe)
 ---------------------
 01Final_coords.xyz_39
 ---------------------
 Symbolic Z-matrix:
 Charge =  0 Multiplicity = 1
 50                   -0.96237   2.33589  -0.99736 
 83                   -1.46197  -0.63042  -1.75087 
 83                   -2.00469   0.13546   1.21042 
 32                    1.07922   0.63245  -2.31179 
 83                   -0.2226   -2.26667   0.52272 
 83                    2.38381  -0.93307  -0.19244 
 50                    1.98874   2.05106   0.14292 
 32                    0.9774   -0.15524   2.27459 
 32                   -0.27431   2.25129   1.91739 
 
 NAtoms=      9 NQM=        9 NQMF=       0 NMMI=      0 NMMIF=      0
                NMic=       0 NMicF=      0.
                    Isotopes and Nuclear Properties:
 (Nuclear quadrupole moments (NQMom) in fm**2, nuclear magnetic moments (NMagM)
  in nuclear magnetons)

  Atom         1           2           3           4           5           6           7           8           9
 IAtWgt=         118         209         209          74         209         209         118          74          74
 AtmWgt= 117.9018000 208.9804000 208.9804000  73.9211788 208.9804000 208.9804000 117.9018000  73.9211788  73.9211788
 NucSpn=           0           9           9           0           9           9           0           0           0
 AtZEff=   0.0000000   0.0000000   0.0000000   0.0000000   0.0000000   0.0000000   0.0000000   0.0000000   0.0000000
 NQMom=    0.0000000 -51.6000000 -51.6000000   0.0000000 -51.6000000 -51.6000000   0.0000000   0.0000000   0.0000000
 NMagM=    0.0000000   4.1106000   4.1106000   0.0000000   4.1106000   4.1106000   0.0000000   0.0000000   0.0000000
 AtZNuc=  50.0000000  83.0000000  83.0000000  32.0000000  83.0000000  83.0000000  50.0000000  32.0000000  32.0000000
 Leave Link  101 at Tue Mar  6 14:40:28 2018, MaxMem=   536870912 cpu:         0.2
 (Enter /share/apps//mg09/l103.exe)

 GradGradGradGradGradGradGradGradGradGradGradGradGradGradGradGradGradGrad
 Berny optimization.
 Initialization pass.
 No Z-matrix variables, so optimization will use Cartesian coordinates.
 Trust Radius=3.00D-01 FncErr=1.00D-07 GrdErr=1.00D-06
 Number of steps in this run=    100 maximum allowed number of steps=    100.
 GradGradGradGradGradGradGradGradGradGradGradGradGradGradGradGradGradGrad

 Leave Link  103 at Tue Mar  6 14:40:28 2018, MaxMem=   536870912 cpu:         0.1
 (Enter /share/apps//mg09/l202.exe)
 ---------------------------------------------------------------------------------------------------
                            Z-MATRIX (ANGSTROMS AND DEGREES)
   CD    Cent   Atom    N1       Length/X        N2       Alpha/Y        N3        Beta/Z          J
 ---------------------------------------------------------------------------------------------------
      1      1  Sn       0  -0.962372          2.335892         -0.997358
      2      2  Bi       0  -1.461974         -0.630417         -1.750870
      3      3  Bi       0  -2.004692          0.135460          1.210419
      4      4  Ge       0   1.079221          0.632451         -2.311793
      5      5  Bi       0  -0.222597         -2.266674          0.522722
      6      6  Bi       0   2.383810         -0.933065         -0.192439
      7      7  Sn       0   1.988742          2.051059          0.142920
      8      8  Ge       0   0.977401         -0.155236          2.274589
      9      9  Ge       0  -0.274308          2.251290          1.917389
 ---------------------------------------------------------------------------------------------------
                         Z-Matrix orientation:                         
 ---------------------------------------------------------------------
 Center     Atomic      Atomic             Coordinates (Angstroms)
 Number     Number       Type             X           Y           Z
 ---------------------------------------------------------------------
      1         50           0       -0.962372    2.335892   -0.997358
      2         83           0       -1.461974   -0.630417   -1.750870
      3         83           0       -2.004692    0.135460    1.210419
      4         32           0        1.079221    0.632451   -2.311793
      5         83           0       -0.222597   -2.266674    0.522722
      6         83           0        2.383810   -0.933065   -0.192439
      7         50           0        1.988742    2.051059    0.142920
      8         32           0        0.977401   -0.155236    2.274589
      9         32           0       -0.274308    2.251290    1.917389
 ---------------------------------------------------------------------
                    Distance matrix (angstroms):
                    1          2          3          4          5
     1  Sn   0.000000
     2  Bi   3.101028   0.000000
     3  Bi   3.286733   3.106500   0.000000
     4  Ge   2.966067   2.892601   4.707812   0.000000
     5  Bi   4.903216   3.063105   3.069045   4.258419   0.000000
     6  Bi   4.746673   4.160572   4.729557   2.940145   3.013856
     7  Sn   3.176545   4.762793   4.555940   2.977464   4.865911
     8  Ge   4.546875   4.730821   3.179598   4.654645   2.994529
     9  Ge   2.996054   4.813617   2.823256   4.726379   4.728612
                    6          7          8          9
     6  Bi   0.000000
     7  Sn   3.028785   0.000000
     8  Ge   2.944356   3.230257   0.000000
     9  Ge   4.653717   2.882747   2.736007   0.000000
 Stoichiometry    Bi4Ge3Sn2
 Framework group  C1[X(Bi4Ge3Sn2)]
 Deg. of freedom    21
 Full point group                 C1      NOp   1
 Largest Abelian subgroup         C1      NOp   1
 Largest concise Abelian subgroup C1      NOp   1
                         Standard orientation:                         
 ---------------------------------------------------------------------
 Center     Atomic      Atomic             Coordinates (Angstroms)
 Number     Number       Type             X           Y           Z
 ---------------------------------------------------------------------
      1         50           0        0.962374    2.335891    0.997358
      2         83           0        1.461973   -0.630418    1.750870
      3         83           0        2.004692    0.135458   -1.210419
      4         32           0       -1.079220    0.632452    2.311793
      5         83           0        0.222595   -2.266674   -0.522722
      6         83           0       -2.383811   -0.933063    0.192439
      7         50           0       -1.988740    2.051061   -0.142920
      8         32           0       -0.977401   -0.155235   -2.274589
      9         32           0        0.274310    2.251290   -1.917389
 ---------------------------------------------------------------------
 Rotational constants (GHZ):      0.0997672      0.0935343      0.0827463
 Leave Link  202 at Tue Mar  6 14:40:28 2018, MaxMem=   536870912 cpu:         0.0
 (Enter /share/apps//mg09/l301.exe)
 Standard basis: def2TZVP (5D, 7F)
 Ernie: Thresh=  0.10000D-02 Tol=  0.10000D-05 Strict=F.
 There are   519 symmetry adapted cartesian basis functions of A   symmetry.
 There are   444 symmetry adapted basis functions of A   symmetry.
   444 basis functions,   963 primitive gaussians,   519 cartesian basis functions
   116 alpha electrons      116 beta electrons
       nuclear repulsion energy      3534.0183867707 Hartrees.
 IExCor= 1009 DFT=T Ex+Corr=PBE1PBE ExCW=0 ScaHFX=  0.250000
 ScaDFX=  0.750000  0.750000  1.000000  1.000000 ScalE2=  1.000000  1.000000
 IRadAn=      0 IRanWt=     -1 IRanGd=            0 ICorTp=0 IEmpDi=  4
 NAtoms=    9 NActive=    9 NUniq=    9 SFac= 1.00D+00 NAtFMM=   60 NAOKFM=F Big=F
 Integral buffers will be    131072 words long.
 Raffenetti 2 integral format.
 Two-electron integral symmetry is turned on.
 Leave Link  301 at Tue Mar  6 14:40:28 2018, MaxMem=   536870912 cpu:         0.2
 (Enter /share/apps//mg09/l302.exe)
 NPDir=0 NMtPBC=     1 NCelOv=     1 NCel=       1 NClECP=     1 NCelD=      1
         NCelK=      1 NCelE2=     1 NClLst=     1 CellRange=     0.0.
 One-electron integrals computed using PRISM.
   1 Symmetry operations used in ECPInt.
 ECPInt:  NShTT=   10440 NPrTT=   41973 LenC2=    9669 LenP2D=   27457.
 LDataN:  DoStor=T MaxTD1= 8 Len=  415
 NBasis=   444 RedAO= T EigKep=  1.46D-03  NBF=   444
 NBsUse=   444 1.00D-06 EigRej= -1.00D+00 NBFU=   444
 Precomputing XC quadrature grid using
 IXCGrd= 4 IRadAn=           0 IRanWt=          -1 IRanGd=           0 AccXCQ= 0.00D+00.
 Defaulting to unpruned grid for atomic number  50.
 Defaulting to unpruned grid for atomic number  50.
 Defaulting to unpruned grid for atomic number  83.
 Generated NRdTot=       0 NPtTot=           0 NUsed=           0 NTot=          32
 NSgBfM=   501   501   501   501   501 MxSgAt=     9 MxSgA2=     9.
 Leave Link  302 at Tue Mar  6 14:40:35 2018, MaxMem=   536870912 cpu:        25.8
 (Enter /share/apps//mg09/l303.exe)
 DipDrv:  MaxL=1.
 Leave Link  303 at Tue Mar  6 14:40:35 2018, MaxMem=   536870912 cpu:         0.2
 (Enter /share/apps//mg09/l401.exe)
 ExpMin= 4.62D-02 ExpMax= 4.66D+05 ExpMxC= 4.50D+03 IAcc=2 IRadAn=         4 AccDes= 0.00D+00
 Harris functional with IExCor= 1009 and IRadAn=       4 diagonalized for initial guess.
 HarFok:  IExCor= 1009 AccDes= 0.00D+00 IRadAn=         4 IDoV= 1 UseB2=F ITyADJ=14
 ICtDFT=  3500011 ScaDFX=  1.000000  1.000000  1.000000  1.000000
 Defaulting to unpruned grid for atomic number  50.
 Defaulting to unpruned grid for atomic number  50.
 Defaulting to unpruned grid for atomic number  50.
 Defaulting to unpruned grid for atomic number  50.
 FoFCou: FMM=F IPFlag=           0 FMFlag=      100000 FMFlg1=           0
         NFxFlg=           0 DoJE=T BraDBF=F KetDBF=T FulRan=T
         wScrn=  0.000000 ICntrl=     500 IOpCl=  0 I1Cent=   200000004 NGrid=           0
         NMat0=    1 NMatS0=      1 NMatT0=    0 NMatD0=    1 NMtDS0=    0 NMtDT0=    0
 Petite list used in FoFCou.
 Harris En= -7518.61407810221    
 JPrj=0 DoOrth=F DoCkMO=F.
 Leave Link  401 at Tue Mar  6 14:40:37 2018, MaxMem=   536870912 cpu:         9.9
 (Enter /share/apps//mg09/l502.exe)
 Closed shell SCF:
 Using DIIS extrapolation, IDIIS=  1040.
 Integral symmetry usage will be decided dynamically.
 IVT=     1410107 IEndB=     1410107 NGot=   536870912 MDV=   536322046
 LenX=   536322046 LenY=   536052166
 Requested convergence on RMS density matrix=1.00D-08 within 768 cycles.
 Requested convergence on MAX density matrix=1.00D-06.
 Requested convergence on             energy=1.00D-06.
 No special actions if energy rises.
 Fock matrices will be formed incrementally for  20 cycles.

 Cycle   1  Pass 1  IDiag  1:
 FoFJK:  IHMeth= 1 ICntrl=       0 DoSepK=F KAlg= 0 I1Cent=   0 FoldK=F
 IRaf= 880000000 NMat=   1 IRICut=       1 DoRegI=T DoRafI=F ISym2E= 0.
 FoFCou: FMM=F IPFlag=           0 FMFlag=      100000 FMFlg1=           0
         NFxFlg=           0 DoJE=F BraDBF=F KetDBF=F FulRan=T
         wScrn=  0.000000 ICntrl=       0 IOpCl=  0 I1Cent=           0 NGrid=           0
         NMat0=    1 NMatS0=      1 NMatT0=    0 NMatD0=    1 NMtDS0=    0 NMtDT0=    0
 Symmetry not used in FoFCou.
 Defaulting to unpruned grid for atomic number  50.
 Defaulting to unpruned grid for atomic number  50.
 Defaulting to unpruned grid for atomic number  50.
 Defaulting to unpruned grid for atomic number  50.
 E= -7517.17311808336    
 DIIS: error= 3.01D-02 at cycle   1 NSaved=   1.
 NSaved= 1 IEnMin= 1 EnMin= -7517.17311808336     IErMin= 1 ErrMin= 3.01D-02
 ErrMax= 3.01D-02  0.00D+00 EMaxC= 1.00D-01 BMatC= 1.51D+00 BMatP= 1.51D+00
 IDIUse=3 WtCom= 6.99D-01 WtEn= 3.01D-01
 Coeff-Com:  0.100D+01
 Coeff-En:   0.100D+01
 Coeff:      0.100D+01
 Gap=     0.134 Goal=   None    Shift=    0.000
 GapD=    0.134 DampG=1.000 DampE=0.500 DampFc=0.5000 IDamp=-1.
 Damping current iteration by 5.00D-01
 RMSDP=6.76D-03 MaxDP=3.33D-01              OVMax= 8.40D-01

 Cycle   2  Pass 1  IDiag  1:
 RMSU=  3.37D-03    CP:  1.00D+00
 E= -7516.48752228231     Delta-E=        0.685595801049 Rises=F Damp=T
 DIIS: error= 1.87D-02 at cycle   2 NSaved=   2.
 NSaved= 2 IEnMin= 1 EnMin= -7517.17311808336     IErMin= 2 ErrMin= 1.87D-02
 ErrMax= 1.87D-02  0.00D+00 EMaxC= 1.00D-01 BMatC= 5.09D-01 BMatP= 1.51D+00
 IDIUse=3 WtCom= 8.13D-01 WtEn= 1.87D-01
 Coeff-Com:  0.269D+00 0.731D+00
 Coeff-En:   0.709D+00 0.291D+00
 Coeff:      0.351D+00 0.649D+00
 Gap=     0.015 Goal=   None    Shift=    0.000
 RMSDP=4.64D-03 MaxDP=2.28D-01 DE= 6.86D-01 OVMax= 7.96D-01

 Cycle   3  Pass 1  IDiag  1:
 RMSU=  3.43D-03    CP:  1.01D+00  7.41D-02
 E= -7515.05952106691     Delta-E=        1.428001215407 Rises=F Damp=F
 DIIS: error= 4.38D-02 at cycle   3 NSaved=   3.
 NSaved= 3 IEnMin= 1 EnMin= -7517.17311808336     IErMin= 2 ErrMin= 1.87D-02
 ErrMax= 4.38D-02  0.00D+00 EMaxC= 1.00D-01 BMatC= 2.00D+00 BMatP= 5.09D-01
 IDIUse=2 WtCom= 0.00D+00 WtEn= 1.00D+00
 Rare condition: small coef for last iteration:  0.000D+00
 Coeff-En:   0.532D+00 0.300D+00 0.168D+00
 Coeff:      0.532D+00 0.300D+00 0.168D+00
 Gap=     0.203 Goal=   None    Shift=    0.000
 RMSDP=5.29D-03 MaxDP=2.33D-01 DE= 1.43D+00 OVMax= 5.64D-01

 Cycle   4  Pass 1  IDiag  1:
 RMSU=  1.90D-03    CP:  1.01D+00  1.10D+00 -2.90D-02
 E= -7516.62609494922     Delta-E=       -1.566573882319 Rises=F Damp=F
 DIIS: error= 2.22D-02 at cycle   4 NSaved=   4.
 NSaved= 4 IEnMin= 1 EnMin= -7517.17311808336     IErMin= 2 ErrMin= 1.87D-02
 ErrMax= 2.22D-02  0.00D+00 EMaxC= 1.00D-01 BMatC= 9.94D-01 BMatP= 5.09D-01
 IDIUse=2 WtCom= 0.00D+00 WtEn= 1.00D+00
 EnCoef did     8 forward-backward iterations
 Coeff-En:   0.506D+00 0.000D+00 0.809D-01 0.413D+00
 Coeff:      0.506D+00 0.000D+00 0.809D-01 0.413D+00
 Gap=     0.122 Goal=   None    Shift=    0.000
 RMSDP=3.05D-03 MaxDP=1.24D-01 DE=-1.57D+00 OVMax= 3.83D-01

 Cycle   5  Pass 1  IDiag  1:
 RMSU=  1.21D-03    CP:  1.01D+00  4.14D-01  3.56D-01  5.53D-01
 E= -7517.64492450184     Delta-E=       -1.018829552619 Rises=F Damp=F
 DIIS: error= 8.95D-03 at cycle   5 NSaved=   5.
 NSaved= 5 IEnMin= 5 EnMin= -7517.64492450184     IErMin= 5 ErrMin= 8.95D-03
 ErrMax= 8.95D-03  0.00D+00 EMaxC= 1.00D-01 BMatC= 1.82D-01 BMatP= 5.09D-01
 IDIUse=3 WtCom= 9.10D-01 WtEn= 8.95D-02
 Coeff-Com:  0.366D+00-0.457D+00-0.142D+00 0.498D+00 0.735D+00
 Coeff-En:   0.000D+00 0.000D+00 0.000D+00 0.158D+00 0.842D+00
 Coeff:      0.334D+00-0.416D+00-0.129D+00 0.467D+00 0.745D+00
 Gap=     0.133 Goal=   None    Shift=    0.000
 RMSDP=1.43D-03 MaxDP=5.87D-02 DE=-1.02D+00 OVMax= 1.79D-01

 Cycle   6  Pass 1  IDiag  1:
 RMSU=  6.38D-04    CP:  1.00D+00  4.73D-01  5.92D-02  6.96D-01  4.28D-01
 E= -7517.75216143422     Delta-E=       -0.107236932372 Rises=F Damp=F
 DIIS: error= 5.25D-03 at cycle   6 NSaved=   6.
 NSaved= 6 IEnMin= 6 EnMin= -7517.75216143422     IErMin= 6 ErrMin= 5.25D-03
 ErrMax= 5.25D-03  0.00D+00 EMaxC= 1.00D-01 BMatC= 4.82D-02 BMatP= 1.82D-01
 IDIUse=3 WtCom= 9.48D-01 WtEn= 5.25D-02
 Coeff-Com:  0.912D-01-0.710D-01-0.587D-01 0.577D-01 0.455D+00 0.525D+00
 Coeff-En:   0.000D+00 0.000D+00 0.000D+00 0.000D+00 0.321D+00 0.679D+00
 Coeff:      0.865D-01-0.672D-01-0.556D-01 0.547D-01 0.448D+00 0.533D+00
 Gap=     0.129 Goal=   None    Shift=    0.000
 RMSDP=7.68D-04 MaxDP=3.16D-02 DE=-1.07D-01 OVMax= 9.29D-02

 Cycle   7  Pass 1  IDiag  1:
 RMSU=  3.61D-04    CP:  1.00D+00  4.21D-01  1.22D-01  6.08D-01  7.15D-01
                    CP:  2.46D-01
 E= -7517.79522591663     Delta-E=       -0.043064482416 Rises=F Damp=F
 DIIS: error= 3.53D-03 at cycle   7 NSaved=   7.
 NSaved= 7 IEnMin= 7 EnMin= -7517.79522591663     IErMin= 7 ErrMin= 3.53D-03
 ErrMax= 3.53D-03  0.00D+00 EMaxC= 1.00D-01 BMatC= 1.30D-02 BMatP= 4.82D-02
 IDIUse=3 WtCom= 9.65D-01 WtEn= 3.53D-02
 Coeff-Com:  0.115D-01 0.148D-01-0.114D-01-0.242D-01 0.213D+00 0.428D+00
 Coeff-Com:  0.368D+00
 Coeff-En:   0.000D+00 0.000D+00 0.000D+00 0.000D+00 0.000D+00 0.256D+00
 Coeff-En:   0.744D+00
 Coeff:      0.111D-01 0.143D-01-0.110D-01-0.233D-01 0.206D+00 0.422D+00
 Coeff:      0.381D+00
 Gap=     0.125 Goal=   None    Shift=    0.000
 RMSDP=3.66D-04 MaxDP=1.47D-02 DE=-4.31D-02 OVMax= 4.57D-02

 Cycle   8  Pass 1  IDiag  1:
 RMSU=  1.58D-04    CP:  1.00D+00  4.12D-01  1.42D-01  6.07D-01  6.76D-01
                    CP:  5.57D-01  3.13D-01
 E= -7517.80960377514     Delta-E=       -0.014377858508 Rises=F Damp=F
 DIIS: error= 1.62D-03 at cycle   8 NSaved=   8.
 NSaved= 8 IEnMin= 8 EnMin= -7517.80960377514     IErMin= 8 ErrMin= 1.62D-03
 ErrMax= 1.62D-03  0.00D+00 EMaxC= 1.00D-01 BMatC= 1.88D-03 BMatP= 1.30D-02
 IDIUse=3 WtCom= 9.84D-01 WtEn= 1.62D-02
 Coeff-Com: -0.497D-02 0.181D-01-0.123D-02-0.198D-01 0.780D-01 0.225D+00
 Coeff-Com:  0.295D+00 0.409D+00
 Coeff-En:   0.000D+00 0.000D+00 0.000D+00 0.000D+00 0.000D+00 0.000D+00
 Coeff-En:   0.159D+00 0.841D+00
 Coeff:     -0.489D-02 0.178D-01-0.121D-02-0.195D-01 0.767D-01 0.222D+00
 Coeff:      0.293D+00 0.416D+00
 Gap=     0.121 Goal=   None    Shift=    0.000
 RMSDP=1.24D-04 MaxDP=6.56D-03 DE=-1.44D-02 OVMax= 1.30D-02

 Cycle   9  Pass 1  IDiag  1:
 RMSU=  4.91D-05    CP:  1.00D+00  4.20D-01  1.35D-01  6.11D-01  6.78D-01
                    CP:  5.44D-01  4.30D-01  3.81D-01
 E= -7517.81187802659     Delta-E=       -0.002274251448 Rises=F Damp=F
 DIIS: error= 3.22D-04 at cycle   9 NSaved=   9.
 NSaved= 9 IEnMin= 9 EnMin= -7517.81187802659     IErMin= 9 ErrMin= 3.22D-04
 ErrMax= 3.22D-04  0.00D+00 EMaxC= 1.00D-01 BMatC= 1.34D-04 BMatP= 1.88D-03
 IDIUse=3 WtCom= 9.97D-01 WtEn= 3.22D-03
 Coeff-Com: -0.429D-02 0.721D-02-0.836D-04-0.563D-02 0.181D-01 0.821D-01
 Coeff-Com:  0.136D+00 0.253D+00 0.514D+00
 Coeff-En:   0.000D+00 0.000D+00 0.000D+00 0.000D+00 0.000D+00 0.000D+00
 Coeff-En:   0.000D+00 0.000D+00 0.100D+01
 Coeff:     -0.428D-02 0.719D-02-0.834D-04-0.561D-02 0.180D-01 0.818D-01
 Coeff:      0.135D+00 0.252D+00 0.516D+00
 Gap=     0.121 Goal=   None    Shift=    0.000
 RMSDP=3.91D-05 MaxDP=2.97D-03 DE=-2.27D-03 OVMax= 4.76D-03

 Cycle  10  Pass 1  IDiag  1:
 RMSU=  2.50D-05    CP:  1.00D+00  4.22D-01  1.32D-01  6.15D-01  6.78D-01
                    CP:  5.39D-01  4.50D-01  4.64D-01  5.96D-01
 E= -7517.81200310607     Delta-E=       -0.000125079483 Rises=F Damp=F
 DIIS: error= 1.61D-04 at cycle  10 NSaved=  10.
 NSaved=10 IEnMin=10 EnMin= -7517.81200310607     IErMin=10 ErrMin= 1.61D-04
 ErrMax= 1.61D-04  0.00D+00 EMaxC= 1.00D-01 BMatC= 3.17D-05 BMatP= 1.34D-04
 IDIUse=3 WtCom= 9.98D-01 WtEn= 1.61D-03
 Coeff-Com: -0.266D-02 0.364D-02 0.110D-04-0.199D-02 0.506D-02 0.374D-01
 Coeff-Com:  0.672D-01 0.139D+00 0.372D+00 0.380D+00
 Coeff-En:   0.000D+00 0.000D+00 0.000D+00 0.000D+00 0.000D+00 0.000D+00
 Coeff-En:   0.000D+00 0.000D+00 0.180D+00 0.820D+00
 Coeff:     -0.266D-02 0.364D-02 0.110D-04-0.199D-02 0.505D-02 0.374D-01
 Coeff:      0.671D-01 0.139D+00 0.371D+00 0.381D+00
 Gap=     0.121 Goal=   None    Shift=    0.000
 RMSDP=2.19D-05 MaxDP=9.18D-04 DE=-1.25D-04 OVMax= 2.79D-03

 Cycle  11  Pass 1  IDiag  1:
 RMSU=  1.05D-05    CP:  1.00D+00  4.22D-01  1.32D-01  6.16D-01  6.77D-01
                    CP:  5.41D-01  4.52D-01  4.78D-01  7.25D-01  2.90D-01
 E= -7517.81203731313     Delta-E=       -0.000034207056 Rises=F Damp=F
 DIIS: error= 8.99D-05 at cycle  11 NSaved=  11.
 NSaved=11 IEnMin=11 EnMin= -7517.81203731313     IErMin=11 ErrMin= 8.99D-05
 ErrMax= 8.99D-05  0.00D+00 EMaxC= 1.00D-01 BMatC= 8.47D-06 BMatP= 3.17D-05
 IDIUse=1 WtCom= 1.00D+00 WtEn= 0.00D+00
 Coeff-Com: -0.106D-02 0.147D-02-0.873D-04-0.337D-03-0.212D-02 0.442D-02
 Coeff-Com:  0.117D-01 0.371D-01 0.144D+00 0.324D+00 0.481D+00
 Coeff:     -0.106D-02 0.147D-02-0.873D-04-0.337D-03-0.212D-02 0.442D-02
 Coeff:      0.117D-01 0.371D-01 0.144D+00 0.324D+00 0.481D+00
 Gap=     0.121 Goal=   None    Shift=    0.000
 RMSDP=7.43D-06 MaxDP=3.11D-04 DE=-3.42D-05 OVMax= 8.89D-04

 Cycle  12  Pass 1  IDiag  1:
 RMSU=  2.73D-06    CP:  1.00D+00  4.22D-01  1.32D-01  6.15D-01  6.79D-01
                    CP:  5.42D-01  4.52D-01  4.85D-01  7.12D-01  5.08D-01
                    CP:  6.66D-01
 E= -7517.81204681490     Delta-E=       -0.000009501773 Rises=F Damp=F
 DIIS: error= 2.24D-05 at cycle  12 NSaved=  12.
 NSaved=12 IEnMin=12 EnMin= -7517.81204681490     IErMin=12 ErrMin= 2.24D-05
 ErrMax= 2.24D-05  0.00D+00 EMaxC= 1.00D-01 BMatC= 6.00D-07 BMatP= 8.47D-06
 IDIUse=1 WtCom= 1.00D+00 WtEn= 0.00D+00
 Coeff-Com: -0.302D-03 0.540D-03-0.371D-04-0.104D-03-0.157D-02-0.816D-03
 Coeff-Com: -0.122D-02-0.327D-02 0.138D-01 0.947D-01 0.181D+00 0.717D+00
 Coeff:     -0.302D-03 0.540D-03-0.371D-04-0.104D-03-0.157D-02-0.816D-03
 Coeff:     -0.122D-02-0.327D-02 0.138D-01 0.947D-01 0.181D+00 0.717D+00
 Gap=     0.121 Goal=   None    Shift=    0.000
 RMSDP=1.82D-06 MaxDP=7.85D-05 DE=-9.50D-06 OVMax= 2.05D-04

 Cycle  13  Pass 1  IDiag  1:
 RMSU=  9.97D-07    CP:  1.00D+00  4.22D-01  1.32D-01  6.16D-01  6.79D-01
                    CP:  5.43D-01  4.53D-01  4.85D-01  7.20D-01  5.34D-01
                    CP:  7.17D-01  8.90D-01
 E= -7517.81204754809     Delta-E=       -0.000000733187 Rises=F Damp=F
 DIIS: error= 9.10D-06 at cycle  13 NSaved=  13.
 NSaved=13 IEnMin=13 EnMin= -7517.81204754809     IErMin=13 ErrMin= 9.10D-06
 ErrMax= 9.10D-06  0.00D+00 EMaxC= 1.00D-01 BMatC= 9.85D-08 BMatP= 6.00D-07
 IDIUse=1 WtCom= 1.00D+00 WtEn= 0.00D+00
 Coeff-Com: -0.667D-04 0.131D-03-0.198D-05-0.266D-04-0.501D-03-0.300D-03
 Coeff-Com: -0.111D-02-0.694D-02-0.112D-01-0.121D-02 0.153D-01 0.307D+00
 Coeff-Com:  0.699D+00
 Coeff:     -0.667D-04 0.131D-03-0.198D-05-0.266D-04-0.501D-03-0.300D-03
 Coeff:     -0.111D-02-0.694D-02-0.112D-01-0.121D-02 0.153D-01 0.307D+00
 Coeff:      0.699D+00
 Gap=     0.121 Goal=   None    Shift=    0.000
 RMSDP=8.94D-07 MaxDP=4.71D-05 DE=-7.33D-07 OVMax= 1.15D-04

 Cycle  14  Pass 1  IDiag  1:
 RMSU=  3.89D-07    CP:  1.00D+00  4.23D-01  1.32D-01  6.16D-01  6.79D-01
                    CP:  5.43D-01  4.54D-01  4.84D-01  7.25D-01  5.35D-01
                    CP:  7.37D-01  9.81D-01  8.28D-01
 E= -7517.81204767659     Delta-E=       -0.000000128503 Rises=F Damp=F
 DIIS: error= 1.83D-06 at cycle  14 NSaved=  14.
 NSaved=14 IEnMin=14 EnMin= -7517.81204767659     IErMin=14 ErrMin= 1.83D-06
 ErrMax= 1.83D-06  0.00D+00 EMaxC= 1.00D-01 BMatC= 6.33D-09 BMatP= 9.85D-08
 IDIUse=1 WtCom= 1.00D+00 WtEn= 0.00D+00
 Coeff-Com: -0.154D-04 0.307D-04 0.208D-05-0.976D-05-0.122D-03-0.127D-04
 Coeff-Com: -0.434D-03-0.352D-02-0.791D-02-0.105D-01-0.122D-01 0.926D-01
 Coeff-Com:  0.385D+00 0.557D+00
 Coeff:     -0.154D-04 0.307D-04 0.208D-05-0.976D-05-0.122D-03-0.127D-04
 Coeff:     -0.434D-03-0.352D-02-0.791D-02-0.105D-01-0.122D-01 0.926D-01
 Coeff:      0.385D+00 0.557D+00
 Gap=     0.121 Goal=   None    Shift=    0.000
 RMSDP=2.86D-07 MaxDP=1.74D-05 DE=-1.29D-07 OVMax= 2.92D-05

 Cycle  15  Pass 1  IDiag  1:
 RMSU=  1.54D-07    CP:  1.00D+00  4.23D-01  1.32D-01  6.16D-01  6.79D-01
                    CP:  5.43D-01  4.54D-01  4.84D-01  7.24D-01  5.38D-01
                    CP:  7.42D-01  9.96D-01  9.21D-01  5.80D-01
 E= -7517.81204768425     Delta-E=       -0.000000007663 Rises=F Damp=F
 DIIS: error= 6.65D-07 at cycle  15 NSaved=  15.
 NSaved=15 IEnMin=15 EnMin= -7517.81204768425     IErMin=15 ErrMin= 6.65D-07
 ErrMax= 6.65D-07  0.00D+00 EMaxC= 1.00D-01 BMatC= 6.73D-10 BMatP= 6.33D-09
 IDIUse=1 WtCom= 1.00D+00 WtEn= 0.00D+00
 Coeff-Com: -0.113D-05 0.379D-05 0.107D-05-0.632D-05 0.442D-05 0.443D-04
 Coeff-Com: -0.910D-04-0.990D-03-0.314D-02-0.546D-02-0.921D-02 0.802D-02
 Coeff-Com:  0.114D+00 0.327D+00 0.570D+00
 Coeff:     -0.113D-05 0.379D-05 0.107D-05-0.632D-05 0.442D-05 0.443D-04
 Coeff:     -0.910D-04-0.990D-03-0.314D-02-0.546D-02-0.921D-02 0.802D-02
 Coeff:      0.114D+00 0.327D+00 0.570D+00
 Gap=     0.121 Goal=   None    Shift=    0.000
 RMSDP=9.01D-08 MaxDP=4.35D-06 DE=-7.66D-09 OVMax= 1.00D-05

 Cycle  16  Pass 1  IDiag  1:
 RMSU=  3.95D-08    CP:  1.00D+00  4.23D-01  1.32D-01  6.16D-01  6.79D-01
                    CP:  5.43D-01  4.54D-01  4.84D-01  7.24D-01  5.38D-01
                    CP:  7.43D-01  1.00D+00  9.21D-01  7.07D-01  6.98D-01
 E= -7517.81204768537     Delta-E=       -0.000000001115 Rises=F Damp=F
 DIIS: error= 1.12D-07 at cycle  16 NSaved=  16.
 NSaved=16 IEnMin=16 EnMin= -7517.81204768537     IErMin=16 ErrMin= 1.12D-07
 ErrMax= 1.12D-07  0.00D+00 EMaxC= 1.00D-01 BMatC= 2.21D-11 BMatP= 6.73D-10
 IDIUse=1 WtCom= 1.00D+00 WtEn= 0.00D+00
 Coeff-Com:  0.646D-06-0.124D-05 0.433D-06-0.198D-05 0.105D-04 0.217D-04
 Coeff-Com: -0.416D-05-0.199D-03-0.883D-03-0.172D-02-0.294D-02-0.258D-02
 Coeff-Com:  0.243D-01 0.100D+00 0.234D+00 0.650D+00
 Coeff:      0.646D-06-0.124D-05 0.433D-06-0.198D-05 0.105D-04 0.217D-04
 Coeff:     -0.416D-05-0.199D-03-0.883D-03-0.172D-02-0.294D-02-0.258D-02
 Coeff:      0.243D-01 0.100D+00 0.234D+00 0.650D+00
 Gap=     0.121 Goal=   None    Shift=    0.000
 RMSDP=2.08D-08 MaxDP=8.83D-07 DE=-1.12D-09 OVMax= 3.33D-06

 Cycle  17  Pass 1  IDiag  1:
 RMSU=  1.40D-08    CP:  1.00D+00  4.23D-01  1.32D-01  6.16D-01  6.79D-01
                    CP:  5.43D-01  4.54D-01  4.84D-01  7.24D-01  5.39D-01
                    CP:  7.43D-01  1.00D+00  9.29D-01  7.16D-01  7.54D-01
                    CP:  8.81D-01
 E= -7517.81204768517     Delta-E=        0.000000000202 Rises=F Damp=F
 DIIS: error= 5.53D-08 at cycle  17 NSaved=  17.
 NSaved=17 IEnMin=16 EnMin= -7517.81204768537     IErMin=17 ErrMin= 5.53D-08
 ErrMax= 5.53D-08  0.00D+00 EMaxC= 1.00D-01 BMatC= 6.61D-12 BMatP= 2.21D-11
 IDIUse=1 WtCom= 1.00D+00 WtEn= 0.00D+00
 Coeff-Com:  0.386D-06-0.821D-06 0.206D-06-0.683D-06 0.574D-05 0.661D-05
 Coeff-Com:  0.695D-05 0.118D-04-0.114D-03-0.314D-03-0.546D-03-0.300D-02
 Coeff-Com:  0.224D-03 0.243D-01 0.805D-01 0.372D+00 0.527D+00
 Coeff:      0.386D-06-0.821D-06 0.206D-06-0.683D-06 0.574D-05 0.661D-05
 Coeff:      0.695D-05 0.118D-04-0.114D-03-0.314D-03-0.546D-03-0.300D-02
 Coeff:      0.224D-03 0.243D-01 0.805D-01 0.372D+00 0.527D+00
 Gap=     0.121 Goal=   None    Shift=    0.000
 RMSDP=9.76D-09 MaxDP=5.99D-07 DE= 2.02D-10 OVMax= 1.30D-06

 SCF Done:  E(RPBE1PBE) =  -7517.81204769     A.U. after   17 cycles
            NFock= 17  Conv=0.98D-08     -V/T= 2.1285
 KE= 6.661960730081D+03 PE=-2.465939176779D+04 EE= 6.945600603256D+03
 Leave Link  502 at Tue Mar  6 14:53:25 2018, MaxMem=   536870912 cpu:      3067.6
 (Enter /share/apps//mg09/l601.exe)
 Copying SCF densities to generalized density rwf, IOpCl= 0 IROHF=0.

 **********************************************************************

            Population analysis using the SCF density.

 **********************************************************************

 Orbital symmetries:
       Occupied  (A) (A) (A) (A) (A) (A) (A) (A) (A) (A) (A) (A)
                 (A) (A) (A) (A) (A) (A) (A) (A) (A) (A) (A) (A)
                 (A) (A) (A) (A) (A) (A) (A) (A) (A) (A) (A) (A)
                 (A) (A) (A) (A) (A) (A) (A) (A) (A) (A) (A) (A)
                 (A) (A) (A) (A) (A) (A) (A) (A) (A) (A) (A) (A)
                 (A) (A) (A) (A) (A) (A) (A) (A) (A) (A) (A) (A)
                 (A) (A) (A) (A) (A) (A) (A) (A) (A) (A) (A) (A)
                 (A) (A) (A) (A) (A) (A) (A) (A) (A) (A) (A) (A)
                 (A) (A) (A) (A) (A) (A) (A) (A) (A) (A) (A) (A)
                 (A) (A) (A) (A) (A) (A) (A) (A)
       Virtual   (A) (A) (A) (A) (A) (A) (A) (A) (A) (A) (A) (A)
                 (A) (A) (A) (A) (A) (A) (A) (A) (A) (A) (A) (A)
                 (A) (A) (A) (A) (A) (A) (A) (A) (A) (A) (A) (A)
                 (A) (A) (A) (A) (A) (A) (A) (A) (A) (A) (A) (A)
                 (A) (A) (A) (A) (A) (A) (A) (A) (A) (A) (A) (A)
                 (A) (A) (A) (A) (A) (A) (A) (A) (A) (A) (A) (A)
                 (A) (A) (A) (A) (A) (A) (A) (A) (A) (A) (A) (A)
                 (A) (A) (A) (A) (A) (A) (A) (A) (A) (A) (A) (A)
                 (A) (A) (A) (A) (A) (A) (A) (A) (A) (A) (A) (A)
                 (A) (A) (A) (A) (A) (A) (A) (A) (A) (A) (A) (A)
                 (A) (A) (A) (A) (A) (A) (A) (A) (A) (A) (A) (A)
                 (A) (A) (A) (A) (A) (A) (A) (A) (A) (A) (A) (A)
                 (A) (A) (A) (A) (A) (A) (A) (A) (A) (A) (A) (A)
                 (A) (A) (A) (A) (A) (A) (A) (A) (A) (A) (A) (A)
                 (A) (A) (A) (A) (A) (A) (A) (A) (A) (A) (A) (A)
                 (A) (A) (A) (A) (A) (A) (A) (A) (A) (A) (A) (A)
                 (A) (A) (A) (A) (A) (A) (A) (A) (A) (A) (A) (A)
                 (A) (A) (A) (A) (A) (A) (A) (A) (A) (A) (A) (A)
                 (A) (A) (A) (A) (A) (A) (A) (A) (A) (A) (A) (A)
                 (A) (A) (A) (A) (A) (A) (A) (A) (A) (A) (A) (A)
                 (A) (A) (A) (A) (A) (A) (A) (A) (A) (A) (A) (A)
                 (A) (A) (A) (A) (A) (A) (A) (A) (A) (A) (A) (A)
                 (A) (A) (A) (A) (A) (A) (A) (A) (A) (A) (A) (A)
                 (A) (A) (A) (A) (A) (A) (A) (A) (A) (A) (A) (A)
                 (A) (A) (A) (A) (A) (A) (A) (A) (A) (A) (A) (A)
                 (A) (A) (A) (A) (A) (A) (A) (A) (A) (A) (A) (A)
                 (A) (A) (A) (A) (A) (A) (A) (A) (A) (A) (A) (A)
                 (A) (A) (A) (A)
 The electronic state is 1-A.
 Alpha  occ. eigenvalues -- -399.10436-399.09021-399.08620 -49.91974 -49.90634
 Alpha  occ. eigenvalues --  -49.90210 -44.40085 -44.40029 -44.39981 -44.38711
 Alpha  occ. eigenvalues --  -44.38696 -44.38650 -44.38287 -44.38257 -44.38246
 Alpha  occ. eigenvalues --   -6.28466  -6.27146  -6.26710  -6.02919  -6.02687
 Alpha  occ. eigenvalues --   -6.01762  -6.01186  -5.13342  -5.12994  -4.43990
 Alpha  occ. eigenvalues --   -4.43809  -4.43647  -4.42596  -4.42536  -4.42380
 Alpha  occ. eigenvalues --   -4.42153  -4.42039  -4.42002  -3.75204  -3.75124
 Alpha  occ. eigenvalues --   -3.74941  -3.74854  -3.74824  -3.74711  -3.74085
 Alpha  occ. eigenvalues --   -3.73956  -3.73652  -3.73527  -3.73277  -3.73161
 Alpha  occ. eigenvalues --   -3.46660  -3.46434  -3.46280  -3.46250  -3.46126
 Alpha  occ. eigenvalues --   -3.45960  -1.23432  -1.23393  -1.23252  -1.23129
 Alpha  occ. eigenvalues --   -1.23095  -1.22080  -1.22044  -1.21931  -1.21869
 Alpha  occ. eigenvalues --   -1.21835  -1.21586  -1.21570  -1.21540  -1.21436
 Alpha  occ. eigenvalues --   -1.21411  -1.09283  -1.09082  -1.08791  -1.08757
 Alpha  occ. eigenvalues --   -1.08623  -1.08553  -1.08492  -1.08402  -1.08302
 Alpha  occ. eigenvalues --   -1.08226  -1.07675  -1.07563  -1.07377  -1.07304
 Alpha  occ. eigenvalues --   -1.07256  -1.07119  -1.07017  -1.06909  -1.06769
 Alpha  occ. eigenvalues --   -1.06715  -1.02849  -1.02796  -1.02712  -1.02528
 Alpha  occ. eigenvalues --   -1.02516  -1.02444  -1.02412  -1.02211  -1.02183
 Alpha  occ. eigenvalues --   -1.02062  -0.67536  -0.61479  -0.58902  -0.57663
 Alpha  occ. eigenvalues --   -0.51371  -0.47866  -0.43626  -0.41302  -0.40382
 Alpha  occ. eigenvalues --   -0.29466  -0.28072  -0.26283  -0.25877  -0.25328
 Alpha  occ. eigenvalues --   -0.24705  -0.23168  -0.21788  -0.21619  -0.21217
 Alpha  occ. eigenvalues --   -0.20218
 Alpha virt. eigenvalues --   -0.08134  -0.07593  -0.07131  -0.07080  -0.06002
 Alpha virt. eigenvalues --   -0.05746  -0.05442  -0.04828  -0.04137  -0.02891
 Alpha virt. eigenvalues --   -0.02546  -0.02118  -0.01796   0.03605   0.05281
 Alpha virt. eigenvalues --    0.05573   0.06429   0.08125   0.08444   0.08846
 Alpha virt. eigenvalues --    0.09150   0.09430   0.09842   0.10318   0.10546
 Alpha virt. eigenvalues --    0.11145   0.11524   0.11831   0.12406   0.12460
 Alpha virt. eigenvalues --    0.13725   0.15454   0.16011   0.16569   0.16813
 Alpha virt. eigenvalues --    0.17998   0.19328   0.19805   0.20258   0.20615
 Alpha virt. eigenvalues --    0.20929   0.21763   0.21923   0.23306   0.23924
 Alpha virt. eigenvalues --    0.24627   0.25874   0.26468   0.28260   0.28449
 Alpha virt. eigenvalues --    0.30006   0.30284   0.30966   0.31248   0.31307
 Alpha virt. eigenvalues --    0.31456   0.32499   0.32626   0.32933   0.33702
 Alpha virt. eigenvalues --    0.34342   0.34844   0.35875   0.36389   0.36703
 Alpha virt. eigenvalues --    0.38783   0.40034   0.40772   0.41351   0.41780
 Alpha virt. eigenvalues --    0.42869   0.43029   0.43743   0.44147   0.44434
 Alpha virt. eigenvalues --    0.45466   0.45940   0.46771   0.47297   0.47477
 Alpha virt. eigenvalues --    0.48617   0.49499   0.50322   0.50761   0.51141
 Alpha virt. eigenvalues --    0.52489   0.53395   0.53983   0.54607   0.55328
 Alpha virt. eigenvalues --    0.56345   0.57097   0.57839   0.58828   0.59298
 Alpha virt. eigenvalues --    0.59987   0.60196   0.61284   0.62003   0.62270
 Alpha virt. eigenvalues --    0.63125   0.63974   0.64704   0.65304   0.65749
 Alpha virt. eigenvalues --    0.66555   0.67090   0.67868   0.68444   0.69987
 Alpha virt. eigenvalues --    0.70432   0.71610   0.73499   0.73556   0.75121
 Alpha virt. eigenvalues --    0.75920   0.76285   0.76348   0.77915   0.78570
 Alpha virt. eigenvalues --    0.79223   0.79359   0.80431   0.81645   0.81913
 Alpha virt. eigenvalues --    0.82685   0.82945   0.83549   0.84771   0.85530
 Alpha virt. eigenvalues --    0.87239   0.88148   0.89008   0.89375   0.90052
 Alpha virt. eigenvalues --    0.90300   0.91686   0.92207   0.93291   0.93789
 Alpha virt. eigenvalues --    0.94206   0.94576   0.95615   0.96739   0.97647
 Alpha virt. eigenvalues --    0.98265   0.99097   0.99371   0.99924   1.02190
 Alpha virt. eigenvalues --    1.02562   1.03061   1.04736   1.05766   1.07243
 Alpha virt. eigenvalues --    1.08822   1.10242   1.11129   1.11906   1.12704
 Alpha virt. eigenvalues --    1.13945   1.14390   1.14915   1.15585   1.16905
 Alpha virt. eigenvalues --    1.17414   1.18459   1.19658   1.20011   1.20405
 Alpha virt. eigenvalues --    1.20949   1.21392   1.22125   1.22350   1.22580
 Alpha virt. eigenvalues --    1.22798   1.22964   1.23345   1.23484   1.24241
 Alpha virt. eigenvalues --    1.24351   1.25150   1.25444   1.26654   1.27523
 Alpha virt. eigenvalues --    1.27907   1.28290   1.28889   1.29649   1.30603
 Alpha virt. eigenvalues --    1.31312   1.31639   1.32020   1.32902   1.34295
 Alpha virt. eigenvalues --    1.35286   1.36208   1.36937   1.38297   1.38995
 Alpha virt. eigenvalues --    1.39787   1.40086   1.41528   1.42245   1.43960
 Alpha virt. eigenvalues --    1.44811   1.45757   1.46705   1.47405   1.48556
 Alpha virt. eigenvalues --    1.49748   1.50449   1.51208   1.52063   1.52257
 Alpha virt. eigenvalues --    1.52552   1.55428   1.55688   1.57948   1.58750
 Alpha virt. eigenvalues --    1.64195   1.68401   1.69229   1.98993   2.07682
 Alpha virt. eigenvalues --    2.08075   2.08785   2.11073   2.14856   2.16177
 Alpha virt. eigenvalues --    2.16697   2.17480   2.18494   2.19285   2.20280
 Alpha virt. eigenvalues --    2.21246   2.22196   2.24068   2.24816   2.25686
 Alpha virt. eigenvalues --    2.28343   2.29096   2.31164   2.31863   2.32260
 Alpha virt. eigenvalues --    2.35199   2.35936   2.37782   2.38185   2.40459
 Alpha virt. eigenvalues --    2.42466   2.43105   2.44464   2.45079   2.47586
 Alpha virt. eigenvalues --    2.48262   2.49483   2.51187   2.52971   2.54696
 Alpha virt. eigenvalues --    2.56345   2.59587   2.61833   2.64450   2.66315
 Alpha virt. eigenvalues --    2.69589   2.70200   2.72689   2.72988   2.74635
 Alpha virt. eigenvalues --    2.77446   2.78410   2.79573   2.79950   2.81861
 Alpha virt. eigenvalues --    2.83224   2.85017   2.87035   2.88788   2.93678
 Alpha virt. eigenvalues --    3.21145   3.27258   3.28029   3.36120   3.38905
 Alpha virt. eigenvalues --    3.41654   3.93801   3.96571   3.98355   3.99805
 Alpha virt. eigenvalues --    4.00759   4.03928   4.05377   4.08391   4.15760
 Alpha virt. eigenvalues --    5.31030   5.32125   5.36398  35.35851  35.39240
 Alpha virt. eigenvalues --   35.41140  35.43212  35.44738  35.46324  35.47992
 Alpha virt. eigenvalues --   35.48284  35.52847  35.54961  35.59555  35.62059
 Alpha virt. eigenvalues --   35.83722  35.94780  36.02397  36.05786  36.20386
 Alpha virt. eigenvalues --   36.23430  36.97643  36.99866  37.01902  37.04124
 Alpha virt. eigenvalues --   37.11410  37.22017 113.57739 113.60153 120.20491
 Alpha virt. eigenvalues --  120.23469 120.24502 120.25301
          Condensed to atoms (all electrons):
               1          2          3          4          5          6
     1  Sn  21.377511   0.126623   0.082417   0.144950  -0.018343  -0.018248
     2  Bi   0.126623  22.402429   0.142268   0.201435   0.171795  -0.024996
     3  Bi   0.082417   0.142268  22.264817  -0.019339   0.156475  -0.025271
     4  Ge   0.144950   0.201435  -0.019339  31.594659  -0.018771   0.182603
     5  Bi  -0.018343   0.171795   0.156475  -0.018771  22.389225   0.195590
     6  Bi  -0.018248  -0.024996  -0.025271   0.182603   0.195590  22.368110
     7  Sn   0.111854  -0.017346  -0.022292   0.132030  -0.015942   0.142181
     8  Ge  -0.020570  -0.021422   0.077400  -0.014577   0.121618   0.147355
     9  Ge   0.132742  -0.015850   0.200839  -0.008850  -0.018784  -0.017643
               7          8          9
     1  Sn   0.111854  -0.020570   0.132742
     2  Bi  -0.017346  -0.021422  -0.015850
     3  Bi  -0.022292   0.077400   0.200839
     4  Ge   0.132030  -0.014577  -0.008850
     5  Bi  -0.015942   0.121618  -0.018784
     6  Bi   0.142181   0.147355  -0.017643
     7  Sn  21.325375   0.069117   0.160110
     8  Ge   0.069117  31.539660   0.172291
     9  Ge   0.160110   0.172291  31.591313
 Mulliken charges:
               1
     1  Sn   0.081062
     2  Bi   0.035065
     3  Bi   0.142686
     4  Ge  -0.194141
     5  Bi   0.037138
     6  Bi   0.050319
     7  Sn   0.114913
     8  Ge  -0.070873
     9  Ge  -0.196169
 Sum of Mulliken charges =   0.00000
 Mulliken charges with hydrogens summed into heavy atoms:
               1
     1  Sn   0.081062
     2  Bi   0.035065
     3  Bi   0.142686
     4  Ge  -0.194141
     5  Bi   0.037138
     6  Bi   0.050319
     7  Sn   0.114913
     8  Ge  -0.070873
     9  Ge  -0.196169
 Electronic spatial extent (au):  <R**2>=           6111.9548
 Charge=              0.0000 electrons
 Dipole moment (field-independent basis, Debye):
    X=              1.0690    Y=             -1.7042    Z=             -0.0541  Tot=              2.0125
 Quadrupole moment (field-independent basis, Debye-Ang):
   XX=           -215.9656   YY=           -215.7470   ZZ=           -223.6914
   XY=             -0.3568   XZ=             -0.0482   YZ=              0.1921
 Traceless Quadrupole moment (field-independent basis, Debye-Ang):
   XX=              2.5024   YY=              2.7210   ZZ=             -5.2234
   XY=             -0.3568   XZ=             -0.0482   YZ=              0.1921
 Octapole moment (field-independent basis, Debye-Ang**2):
  XXX=             57.2710  YYY=           -156.5974  ZZZ=             18.3952  XYY=             15.3947
  XXY=            -52.0198  XXZ=              1.3292  XZZ=             28.2765  YZZ=            -55.5970
  YYZ=             10.6663  XYZ=              1.6361
 Hexadecapole moment (field-independent basis, Debye-Ang**3):
 XXXX=          -3360.9558 YYYY=          -3411.4102 ZZZZ=          -2896.3432 XXXY=             52.2746
 XXXZ=            -45.4995 YYYX=             24.3243 YYYZ=             24.4198 ZZZX=             13.3224
 ZZZY=             -8.3201 XXYY=          -1151.8920 XXZZ=          -1035.5708 YYZZ=          -1074.8768
 XXYZ=             -9.7213 YYXZ=              0.8945 ZZXY=              5.1056
 N-N= 3.534018386771D+03 E-N=-2.465939175854D+04  KE= 6.661960730081D+03
 No NMR shielding tensors so no spin-rotation constants.
 Leave Link  601 at Tue Mar  6 14:53:26 2018, MaxMem=   536870912 cpu:         1.1
 (Enter /share/apps//mg09/l701.exe)
 Compute integral first derivatives.
 ... and contract with generalized density number  0.
   1 Symmetry operations used in ECPInt.
 ECPInt:  NShTT=   10440 NPrTT=   41973 LenC2=    9669 LenP2D=   27457.
 LDataN:  DoStor=T MaxTD1= 9 Len=  602
 Leave Link  701 at Tue Mar  6 14:53:43 2018, MaxMem=   536870912 cpu:        69.6
 (Enter /share/apps//mg09/l702.exe)
 L702 exits ... SP integral derivatives will be done elsewhere.
 Leave Link  702 at Tue Mar  6 14:53:43 2018, MaxMem=   536870912 cpu:         0.1
 (Enter /share/apps//mg09/l703.exe)
 Compute integral first derivatives, UseDBF=F ICtDFT=           0.
 Integral derivatives from FoFJK, PRISM(SPDF).
 Calling FoFJK, ICntrl=      2127 FMM=F ISym2X=0 I1Cent= 0 IOpClX= 0 NMat=1 NMatS=1 NMatT=0.
 FoFJK:  IHMeth= 1 ICntrl=    2127 DoSepK=F KAlg= 0 I1Cent=   0 FoldK=F
 IRaf=         0 NMat=   1 IRICut=       1 DoRegI=T DoRafI=F ISym2E= 0.
 FoFCou: FMM=F IPFlag=           0 FMFlag=      100000 FMFlg1=         800
         NFxFlg=           0 DoJE=F BraDBF=F KetDBF=F FulRan=T
         wScrn=  0.000000 ICntrl=    2127 IOpCl=  0 I1Cent=           0 NGrid=           0
         NMat0=    1 NMatS0=      1 NMatT0=    0 NMatD0=    1 NMtDS0=    0 NMtDT0=    0
 Symmetry not used in FoFCou.
 Defaulting to unpruned grid for atomic number  50.
 Defaulting to unpruned grid for atomic number  50.
 Defaulting to unpruned grid for atomic number  50.
 Defaulting to unpruned grid for atomic number  50.
 Leave Link  703 at Tue Mar  6 14:56:30 2018, MaxMem=   536870912 cpu:       665.2
 (Enter /share/apps//mg09/l716.exe)
 Dipole        = 4.20591705D-01-6.70479239D-01-2.12746691D-02
 ***** Axes restored to original set *****
 -------------------------------------------------------------------
 Center     Atomic                   Forces (Hartrees/Bohr)
 Number     Number              X              Y              Z
 -------------------------------------------------------------------
      1       50           0.009646729   -0.009296702    0.006264086
      2       83           0.006285870    0.004087221    0.003618672
      3       83           0.009107071    0.004008414   -0.001811933
      4       32          -0.004978714    0.001598855    0.012423463
      5       83           0.001630546    0.007307564   -0.000073069
      6       83          -0.007493652    0.005866085    0.000957240
      7       50          -0.013487280   -0.008646652   -0.000333367
      8       32          -0.004752211    0.006988021   -0.011091514
      9       32           0.004041640   -0.011912805   -0.009953577
 -------------------------------------------------------------------
 Cartesian Forces:  Max     0.013487280 RMS     0.007272742
 Force constants in Cartesian coordinates: 
                1             2             3             4             5 
      1  0.138434D+00
      2 -0.330706D-01  0.183184D+00
      3  0.176831D-01 -0.204772D-01  0.148575D+00
      4 -0.171523D-01  0.112382D-01 -0.609856D-02  0.132347D+00
      5 -0.157704D-01 -0.564890D-01 -0.191080D-01  0.290421D-01  0.126550D+00
      6 -0.835129D-02  0.830242D-02 -0.258646D-01  0.205521D-01  0.113560D-01
      7 -0.275511D-01  0.130229D-01 -0.369189D-02 -0.278105D-01 -0.937158D-02
      8 -0.146664D-01 -0.313915D-01  0.188482D-01  0.155090D-02 -0.204489D-01
      9  0.195335D-01  0.945774D-02 -0.266351D-01  0.269310D-01 -0.535123D-02
     10 -0.356047D-01  0.123034D-01  0.198224D-01 -0.615699D-01 -0.153383D-01
     11  0.248321D-01 -0.336032D-01 -0.186068D-01 -0.279187D-01 -0.278755D-01
     12 -0.477287D-02  0.100100D-01 -0.345091D-01 -0.758995D-02 -0.550331D-02
     13  0.371009D-02 -0.266021D-02  0.648427D-03 -0.245615D-01  0.117531D-01
     14  0.567762D-02 -0.452763D-02  0.409023D-02 -0.599154D-02 -0.342897D-01
     15 -0.186171D-02  0.262662D-02  0.501288D-02 -0.139936D-01  0.289244D-01
     16 -0.765766D-03  0.918689D-02 -0.323007D-02 -0.629979D-02  0.254160D-02
     17  0.125974D-02 -0.544791D-03  0.325980D-02  0.170778D-02  0.376581D-02
     18  0.138095D-02  0.652880D-03  0.586359D-02 -0.442616D-02 -0.297551D-02
     19 -0.440976D-01 -0.173689D-01 -0.374261D-02 -0.248198D-03 -0.260690D-02
     20  0.177379D-01 -0.285281D-01  0.102707D-01 -0.704125D-02  0.120343D-02
     21 -0.167626D-01 -0.198965D-02 -0.187769D-01 -0.122966D-02  0.149940D-02
     22  0.418094D-02  0.542000D-02 -0.372444D-02  0.169833D-02 -0.236483D-02
     23  0.364713D-02  0.112313D-02  0.251754D-02 -0.253784D-04  0.523296D-02
     24 -0.727687D-02  0.100501D-01 -0.200597D-02 -0.849739D-02 -0.341769D-02
     25 -0.211539D-01  0.192828D-02 -0.176663D-01  0.359644D-02  0.211522D-02
     26  0.103529D-01 -0.292231D-01  0.192056D-01 -0.256205D-02  0.235080D-02
     27  0.427750D-03 -0.186329D-01 -0.516600D-01 -0.564779D-02 -0.542407D-02
                6             7             8             9            10 
      6  0.144278D+00
      7 -0.810252D-02  0.210774D+00
      8 -0.152363D-01  0.211091D-01  0.158334D+00
      9 -0.511827D-01 -0.291381D-01  0.124157D-01  0.152554D+00
     10  0.230435D-01 -0.633401D-03  0.115215D-02  0.925198D-03  0.145490D+00
     11  0.124918D-01 -0.139143D-02  0.555085D-02  0.203926D-02  0.288423D-02
     12 -0.329794D-01  0.988282D-02  0.589821D-03 -0.130319D-02 -0.148142D-01
     13 -0.145058D-01 -0.399393D-01  0.317041D-01  0.838015D-02  0.623182D-02
     14 -0.281993D-02 -0.405296D-02 -0.452611D-01  0.145630D-02 -0.221777D-02
     15 -0.371974D-01  0.101962D-01 -0.149885D-01 -0.186566D-01  0.437185D-02
     16 -0.451278D-02 -0.452649D-02 -0.212881D-03  0.698256D-02 -0.346922D-01
     17 -0.329970D-02  0.548692D-02  0.460899D-02 -0.183703D-02  0.158600D-01
     18  0.244213D-02 -0.356086D-04  0.168363D-02  0.380751D-02 -0.237669D-01
     19 -0.657577D-02 -0.637979D-02 -0.361220D-02  0.629373D-02 -0.309762D-01
     20 -0.506238D-02 -0.896621D-02  0.343597D-02  0.287693D-02 -0.152375D-01
     21  0.366983D-02  0.134689D-02 -0.916764D-03  0.649720D-02 -0.189336D-01
     22 -0.891506D-03 -0.497703D-01  0.828430D-02 -0.242414D-01  0.449123D-02
     23  0.188236D-02 -0.296112D-02 -0.143704D-01  0.334013D-02 -0.149577D-02
     24 -0.349214D-02  0.983262D-02  0.403146D-02 -0.322879D-01  0.477871D-02
     25 -0.655935D-03 -0.541635D-01 -0.453091D-01 -0.156667D-01  0.726314D-02
     26 -0.761426D-02 -0.128756D-01 -0.604582D-01 -0.243978D-01  0.208956D-02
     27  0.325956D-03  0.970956D-02 -0.642713D-02 -0.327932D-01  0.457296D-02
               11            12            13            14            15 
     11  0.110927D+00
     12 -0.685513D-02  0.172945D+00
     13 -0.226336D-02  0.436341D-02  0.120107D+00
     14 -0.339714D-02  0.347562D-02  0.100708D-01  0.176248D+00
     15  0.357877D-02 -0.219849D-02  0.729927D-02 -0.241691D-02  0.103340D+00
     16  0.118686D-01  0.307644D-02 -0.512417D-01  0.637920D-02  0.105981D-01
     17 -0.315853D-01  0.534678D-02 -0.286850D-01 -0.335290D-01  0.120170D-01
     18  0.311195D-01 -0.483550D-01  0.656094D-02  0.360622D-03 -0.170227D-01
     19 -0.749439D-02  0.108956D-01  0.284214D-02 -0.836870D-02  0.885812D-03
     20 -0.282378D-01 -0.131522D-02 -0.697501D-03 -0.345083D-02  0.322889D-02
     21 -0.268970D-01 -0.436649D-01 -0.204099D-02 -0.116283D-02  0.548497D-02
     22  0.117606D-03 -0.477830D-02 -0.263458D-01 -0.193804D-02 -0.199899D-01
     23  0.564165D-02  0.110357D-02 -0.176535D-01 -0.466711D-01 -0.331421D-01
     24  0.256007D-02 -0.631145D-02 -0.126578D-01  0.292485D-02 -0.426871D-01
     25 -0.634678D-03  0.373701D-02  0.919753D-02  0.441384D-03  0.249391D-02
     26  0.257925D-02 -0.685216D-02 -0.156842D-02 -0.512139D-02  0.171847D-03
     27  0.569519D-03 -0.362320D-02  0.195238D-02 -0.590796D-02  0.392480D-02
               16            17            18            19            20 
     16  0.158127D+00
     17 -0.307705D-01  0.146460D+00
     18 -0.185190D-01 -0.425380D-02  0.129083D+00
     19 -0.289560D-01  0.211153D-01  0.645364D-02  0.181273D+00
     20 -0.183573D-01 -0.633397D-01 -0.421486D-02  0.385283D-01  0.176192D+00
     21  0.234245D-02 -0.730549D-02 -0.170335D-01 -0.585217D-02  0.128378D-01
     22 -0.324217D-01  0.111722D-01  0.332430D-01 -0.229588D-01 -0.178545D-01
     23  0.121889D-01 -0.276291D-01 -0.176280D-01 -0.156814D-02 -0.279629D-01
     24 -0.604428D-03  0.312367D-02 -0.635294D-01 -0.145302D-01 -0.103345D-02
     25  0.776878D-03  0.285364D-02 -0.890827D-03 -0.504987D-01  0.118880D-01
     26  0.717547D-02  0.179278D-02 -0.474452D-02 -0.186243D-01 -0.293116D-01
     27  0.386673D-02 -0.705121D-02  0.474488D-02  0.617193D-02 -0.175884D-01
               21            22            23            24            25 
     21  0.133221D+00
     22  0.107720D-01  0.154840D+00
     23  0.199139D-01 -0.147899D-01  0.162544D+00
     24 -0.321195D-01  0.243865D-01 -0.127526D-02  0.221978D+00
     25  0.303576D-01 -0.337137D-01  0.226578D-01  0.456876D-02  0.138696D+00
     26  0.402060D-02  0.119532D-01 -0.579077D-01 -0.169637D-01  0.405936D-02
     27 -0.372786D-01 -0.147760D-01  0.232878D-01 -0.395444D-01 -0.627756D-02
               26            27 
     26  0.175299D+00
     27  0.371744D-01  0.155904D+00
 Leave Link  716 at Tue Mar  6 14:56:30 2018, MaxMem=   536870912 cpu:         0.1
 (Enter /share/apps//mg09/l103.exe)

 GradGradGradGradGradGradGradGradGradGradGradGradGradGradGradGradGradGrad
 Berny optimization.
 Search for a local minimum.
 Step number   1 out of a maximum of  100
 All quantities printed in internal units (Hartrees-Bohrs-Radians)
 Second derivative matrix not updated -- first step.
 ITU=  0
     Eigenvalues ---    0.08141   0.11723   0.12338   0.12762   0.13821
     Eigenvalues ---    0.14285   0.14715   0.14995   0.15509   0.16308
     Eigenvalues ---    0.17478   0.21983   0.22715   0.23487   0.24484
     Eigenvalues ---    0.24662   0.26183   0.28125   0.28578   0.30566
     Eigenvalues ---    0.31420
 RFO step:  Lambda=-8.55182251D-03 EMin= 8.14052050D-02
 Linear search not attempted -- first point.
 TrRot= -0.000432 -0.000051 -0.000958  0.000015  0.000050  0.000015
 Variable       Old X    -DE/DX   Delta X   Delta X   Delta X     New X
                                 (Linear)    (Quad)   (Total)
    X1       -1.81862   0.00965   0.00000   0.05242   0.05177  -1.76685
    Y1        4.41420  -0.00930   0.00000  -0.05597  -0.05607   4.35813
    Z1       -1.88473   0.00626   0.00000   0.04162   0.04075  -1.84398
    X2       -2.76273   0.00629   0.00000   0.04662   0.04605  -2.71668
    Y2       -1.19132   0.00409   0.00000   0.02019   0.02006  -1.17125
    Z2       -3.30866   0.00362   0.00000   0.03619   0.03537  -3.27330
    X3       -3.78832   0.00911   0.00000   0.05235   0.05202  -3.73630
    Y3        0.25598   0.00401   0.00000   0.01307   0.01291   0.26890
    Z3        2.28736  -0.00181   0.00000  -0.02480  -0.02557   2.26179
    X4        2.03943  -0.00498   0.00000  -0.02901  -0.02969   2.00974
    Y4        1.19516   0.00160   0.00000   0.01109   0.01110   1.20625
    Z4       -4.36866   0.01242   0.00000   0.08102   0.07996  -4.28870
    X5       -0.42065   0.00163   0.00000   0.00805   0.00779  -0.41285
    Y5       -4.28339   0.00731   0.00000   0.05420   0.05414  -4.22926
    Z5        0.98780  -0.00007   0.00000  -0.00256  -0.00349   0.98431
    X6        4.50475  -0.00749   0.00000  -0.05855  -0.05894   4.44580
    Y6       -1.76324   0.00587   0.00000   0.03417   0.03424  -1.72899
    Z6       -0.36366   0.00096   0.00000   0.00344   0.00226  -0.36140
    X7        3.75818  -0.01349   0.00000  -0.07221  -0.07274   3.68544
    Y7        3.87594  -0.00865   0.00000  -0.05017  -0.05011   3.82583
    Z7        0.27008  -0.00033   0.00000  -0.00123  -0.00238   0.26770
    X8        1.84702  -0.00475   0.00000  -0.02375  -0.02396   1.82306
    Y8       -0.29335   0.00699   0.00000   0.03718   0.03718  -0.25617
    Z8        4.29835  -0.01109   0.00000  -0.06278  -0.06383   4.23452
    X9       -0.51837   0.00404   0.00000   0.02808   0.02770  -0.49067
    Y9        4.25432  -0.01191   0.00000  -0.06338  -0.06345   4.19087
    Z9        3.62334  -0.00995   0.00000  -0.06213  -0.06306   3.56028
         Item               Value     Threshold  Converged?
 Maximum Force            0.013487     0.000450     NO 
 RMS     Force            0.007273     0.000300     NO 
 Maximum Displacement     0.079956     0.001800     NO 
 RMS     Displacement     0.044074     0.001200     NO 
 Predicted change in Energy=-4.500186D-03
 Lowest energy point so far.  Saving SCF results.
 GradGradGradGradGradGradGradGradGradGradGradGradGradGradGradGradGradGrad

 Leave Link  103 at Tue Mar  6 14:56:30 2018, MaxMem=   536870912 cpu:         0.1
 (Enter /share/apps//mg09/l202.exe)
                          Input orientation:                          
 ---------------------------------------------------------------------
 Center     Atomic      Atomic             Coordinates (Angstroms)
 Number     Number       Type             X           Y           Z
 ---------------------------------------------------------------------
      1         50           0       -0.934979    2.306222   -0.975792
      2         83           0       -1.437604   -0.619801   -1.732155
      3         83           0       -1.977164    0.142294    1.196888
      4         32           0        1.063511    0.638322   -2.269482
      5         83           0       -0.218473   -2.238027    0.520874
      6         83           0        2.352618   -0.914945   -0.191243
      7         50           0        1.950249    2.024541    0.141663
      8         32           0        0.964722   -0.135560    2.240810
      9         32           0       -0.259649    2.217714    1.884017
 ---------------------------------------------------------------------
                    Distance matrix (angstroms):
                    1          2          3          4          5
     1  Sn   0.000000
     2  Bi   3.063711   0.000000
     3  Bi   3.238714   3.074281   0.000000
     4  Ge   2.906799   2.850819   4.637614   0.000000
     5  Bi   4.837725   3.030028   3.035773   4.207487   0.000000
     6  Bi   4.669017   4.102109   4.668156   2.897155   2.977946
     7  Sn   3.106861   4.688420   4.481175   2.919165   4.797565
     8  Ge   4.462924   4.667988   3.133955   4.577269   2.962853
     9  Ge   2.939798   4.745079   2.780175   4.636463   4.659773
                    6          7          8          9
     6  Bi   0.000000
     7  Sn   2.985515   0.000000
     8  Ge   2.906644   3.169183   0.000000
     9  Ge   4.576483   2.820774   2.676618   0.000000
 Stoichiometry    Bi4Ge3Sn2
 Framework group  C1[X(Bi4Ge3Sn2)]
 Deg. of freedom    21
 Full point group                 C1      NOp   1
 RotChk:  IX=0 Diff= 1.78D-02
 Largest Abelian subgroup         C1      NOp   1
 Largest concise Abelian subgroup C1      NOp   1
                         Standard orientation:                         
 ---------------------------------------------------------------------
 Center     Atomic      Atomic             Coordinates (Angstroms)
 Number     Number       Type             X           Y           Z
 ---------------------------------------------------------------------
      1         50           0        0.906554    2.311658    0.982671
      2         83           0        1.443549   -0.609214    1.735311
      3         83           0        1.979844    0.164325   -1.191330
      4         32           0       -1.073978    0.617158    2.269390
      5         83           0        0.249153   -2.238566   -0.522942
      6         83           0       -2.339510   -0.948391    0.185884
      7         50           0       -1.972636    1.996370   -0.141360
      8         32           0       -0.956202   -0.147955   -2.241943
      9         32           0        0.238373    2.219603   -1.878705
 ---------------------------------------------------------------------
 Rotational constants (GHZ):      0.1025313      0.0963688      0.0851660
 Leave Link  202 at Tue Mar  6 14:56:31 2018, MaxMem=   536870912 cpu:         0.0
 (Enter /share/apps//mg09/l301.exe)
 Standard basis: def2TZVP (5D, 7F)
 Ernie: Thresh=  0.10000D-02 Tol=  0.10000D-05 Strict=F.
 There are   519 symmetry adapted cartesian basis functions of A   symmetry.
 There are   444 symmetry adapted basis functions of A   symmetry.
   444 basis functions,   963 primitive gaussians,   519 cartesian basis functions
   116 alpha electrons      116 beta electrons
       nuclear repulsion energy      3590.3614518502 Hartrees.
 IExCor= 1009 DFT=T Ex+Corr=PBE1PBE ExCW=0 ScaHFX=  0.250000
 ScaDFX=  0.750000  0.750000  1.000000  1.000000 ScalE2=  1.000000  1.000000
 IRadAn=      0 IRanWt=     -1 IRanGd=            0 ICorTp=0 IEmpDi=  4
 NAtoms=    9 NActive=    9 NUniq=    9 SFac= 1.00D+00 NAtFMM=   60 NAOKFM=F Big=F
 Integral buffers will be    131072 words long.
 Raffenetti 2 integral format.
 Two-electron integral symmetry is turned on.
 Leave Link  301 at Tue Mar  6 14:56:31 2018, MaxMem=   536870912 cpu:         0.2
 (Enter /share/apps//mg09/l302.exe)
 NPDir=0 NMtPBC=     1 NCelOv=     1 NCel=       1 NClECP=     1 NCelD=      1
         NCelK=      1 NCelE2=     1 NClLst=     1 CellRange=     0.0.
 One-electron integrals computed using PRISM.
   1 Symmetry operations used in ECPInt.
 ECPInt:  NShTT=   10440 NPrTT=   41973 LenC2=    9692 LenP2D=   27661.
 LDataN:  DoStor=T MaxTD1= 8 Len=  415
 NBasis=   444 RedAO= T EigKep=  1.20D-03  NBF=   444
 NBsUse=   444 1.00D-06 EigRej= -1.00D+00 NBFU=   444
 Precomputing XC quadrature grid using
 IXCGrd= 4 IRadAn=           0 IRanWt=          -1 IRanGd=           0 AccXCQ= 0.00D+00.
 Defaulting to unpruned grid for atomic number  50.
 Defaulting to unpruned grid for atomic number  50.
 Defaulting to unpruned grid for atomic number  83.
 Generated NRdTot=       0 NPtTot=           0 NUsed=           0 NTot=          32
 NSgBfM=   501   501   504   504   504 MxSgAt=     9 MxSgA2=     9.
 Leave Link  302 at Tue Mar  6 14:56:38 2018, MaxMem=   536870912 cpu:        27.5
 (Enter /share/apps//mg09/l303.exe)
 DipDrv:  MaxL=1.
 Leave Link  303 at Tue Mar  6 14:56:38 2018, MaxMem=   536870912 cpu:         0.2
 (Enter /share/apps//mg09/l401.exe)
 Initial guess from the checkpoint file:  "Isomer_39.chk"
 B after Tr=     0.000000    0.000000    0.000000
         Rot=    0.999980   -0.000871    0.001144   -0.006190 Ang=  -0.73 deg.
 Guess basis will be translated and rotated to current coordinates.
 JPrj=2 DoOrth=T DoCkMO=T.
 Generating alternative initial guess.
 ExpMin= 4.62D-02 ExpMax= 4.66D+05 ExpMxC= 4.50D+03 IAcc=2 IRadAn=         4 AccDes= 0.00D+00
 Harris functional with IExCor= 1009 and IRadAn=       4 diagonalized for initial guess.
 HarFok:  IExCor= 1009 AccDes= 0.00D+00 IRadAn=         4 IDoV= 1 UseB2=F ITyADJ=14
 ICtDFT=  3500011 ScaDFX=  1.000000  1.000000  1.000000  1.000000
 Defaulting to unpruned grid for atomic number  50.
 Defaulting to unpruned grid for atomic number  50.
 Defaulting to unpruned grid for atomic number  50.
 Defaulting to unpruned grid for atomic number  50.
 FoFCou: FMM=F IPFlag=           0 FMFlag=      100000 FMFlg1=           0
         NFxFlg=           0 DoJE=T BraDBF=F KetDBF=T FulRan=T
         wScrn=  0.000000 ICntrl=     500 IOpCl=  0 I1Cent=   200000004 NGrid=           0
         NMat0=    1 NMatS0=      1 NMatT0=    0 NMatD0=    1 NMtDS0=    0 NMtDT0=    0
 Petite list used in FoFCou.
 Harris En= -7518.62700295850    
 Leave Link  401 at Tue Mar  6 14:56:41 2018, MaxMem=   536870912 cpu:        11.8
 (Enter /share/apps//mg09/l502.exe)
 Closed shell SCF:
 Using DIIS extrapolation, IDIIS=  1040.
 Integral symmetry usage will be decided dynamically.
 IVT=     1410107 IEndB=     1410107 NGot=   536870912 MDV=   536322046
 LenX=   536322046 LenY=   536052166
 Requested convergence on RMS density matrix=1.00D-08 within 768 cycles.
 Requested convergence on MAX density matrix=1.00D-06.
 Requested convergence on             energy=1.00D-06.
 No special actions if energy rises.
 Fock matrices will be formed incrementally for  20 cycles.

 Cycle   1  Pass 1  IDiag  1:
 FoFJK:  IHMeth= 1 ICntrl=       0 DoSepK=F KAlg= 0 I1Cent=   0 FoldK=F
 IRaf= 880000000 NMat=   1 IRICut=       1 DoRegI=T DoRafI=F ISym2E= 0.
 FoFCou: FMM=F IPFlag=           0 FMFlag=      100000 FMFlg1=           0
         NFxFlg=           0 DoJE=F BraDBF=F KetDBF=F FulRan=T
         wScrn=  0.000000 ICntrl=       0 IOpCl=  0 I1Cent=           0 NGrid=           0
         NMat0=    1 NMatS0=      1 NMatT0=    0 NMatD0=    1 NMtDS0=    0 NMtDT0=    0
 Symmetry not used in FoFCou.
 Defaulting to unpruned grid for atomic number  50.
 Defaulting to unpruned grid for atomic number  50.
 Defaulting to unpruned grid for atomic number  50.
 Defaulting to unpruned grid for atomic number  50.
 E= -7517.81682953372    
 DIIS: error= 5.04D-03 at cycle   1 NSaved=   1.
 NSaved= 1 IEnMin= 1 EnMin= -7517.81682953372     IErMin= 1 ErrMin= 5.04D-03
 ErrMax= 5.04D-03  0.00D+00 EMaxC= 1.00D-01 BMatC= 9.09D-03 BMatP= 9.09D-03
 IDIUse=3 WtCom= 9.50D-01 WtEn= 5.04D-02
 Coeff-Com:  0.100D+01
 Coeff-En:   0.100D+01
 Coeff:      0.100D+01
 Gap=     7.510 Goal=   None    Shift=    0.000
 GapD=    7.510 DampG=2.000 DampE=1.000 DampFc=2.0000 IDamp=-1.
 RMSDP=1.83D-04 MaxDP=4.36D-03              OVMax= 2.16D-02

 Cycle   2  Pass 1  IDiag  1:
 RMSU=  1.82D-04    CP:  1.00D+00
 E= -7517.81687003317     Delta-E=       -0.000040499450 Rises=F Damp=F
 DIIS: error= 1.60D-03 at cycle   2 NSaved=   2.
 NSaved= 2 IEnMin= 2 EnMin= -7517.81687003317     IErMin= 2 ErrMin= 1.60D-03
 ErrMax= 1.60D-03  0.00D+00 EMaxC= 1.00D-01 BMatC= 1.64D-03 BMatP= 9.09D-03
 IDIUse=3 WtCom= 9.84D-01 WtEn= 1.60D-02
 Coeff-Com:  0.190D+00 0.810D+00
 Coeff-En:   0.489D+00 0.511D+00
 Coeff:      0.195D+00 0.805D+00
 Gap=     0.122 Goal=   None    Shift=    0.000
 RMSDP=2.21D-04 MaxDP=1.00D-02 DE=-4.05D-05 OVMax= 1.66D-02

 Cycle   3  Pass 1  IDiag  1:
 RMSU=  2.01D-04    CP:  9.99D-01  5.20D-01
 E= -7517.81463759151     Delta-E=        0.002232441660 Rises=F Damp=F
 DIIS: error= 2.33D-03 at cycle   3 NSaved=   3.
 NSaved= 3 IEnMin= 2 EnMin= -7517.81687003317     IErMin= 2 ErrMin= 1.60D-03
 ErrMax= 2.33D-03  0.00D+00 EMaxC= 1.00D-01 BMatC= 4.06D-03 BMatP= 1.64D-03
 IDIUse=3 WtCom= 1.72D-01 WtEn= 8.28D-01
 Coeff-Com:  0.775D-02 0.610D+00 0.382D+00
 Coeff-En:   0.000D+00 0.677D+00 0.323D+00
 Coeff:      0.133D-02 0.665D+00 0.334D+00
 Gap=     0.124 Goal=   None    Shift=    0.000
 RMSDP=1.27D-04 MaxDP=6.06D-03 DE= 2.23D-03 OVMax= 1.19D-02

 Cycle   4  Pass 1  IDiag  1:
 RMSU=  5.07D-05    CP:  9.99D-01  7.81D-01  4.76D-01
 E= -7517.81795756926     Delta-E=       -0.003319977754 Rises=F Damp=F
 DIIS: error= 5.72D-04 at cycle   4 NSaved=   4.
 NSaved= 4 IEnMin= 4 EnMin= -7517.81795756926     IErMin= 4 ErrMin= 5.72D-04
 ErrMax= 5.72D-04  0.00D+00 EMaxC= 1.00D-01 BMatC= 2.72D-04 BMatP= 1.64D-03
 IDIUse=3 WtCom= 9.94D-01 WtEn= 5.72D-03
 Coeff-Com:  0.190D-03 0.447D+00 0.234D+00 0.319D+00
 Coeff-En:   0.000D+00 0.121D+00 0.000D+00 0.879D+00
 Coeff:      0.189D-03 0.445D+00 0.233D+00 0.322D+00
 Gap=     0.124 Goal=   None    Shift=    0.000
 RMSDP=4.39D-05 MaxDP=1.80D-03 DE=-3.32D-03 OVMax= 4.53D-03

 Cycle   5  Pass 1  IDiag  1:
 RMSU=  1.50D-05    CP:  9.99D-01  8.48D-01  4.38D-01  2.41D-01
 E= -7517.81818726208     Delta-E=       -0.000229692816 Rises=F Damp=F
 DIIS: error= 9.71D-05 at cycle   5 NSaved=   5.
 NSaved= 5 IEnMin= 5 EnMin= -7517.81818726208     IErMin= 5 ErrMin= 9.71D-05
 ErrMax= 9.71D-05  0.00D+00 EMaxC= 1.00D-01 BMatC= 1.74D-05 BMatP= 2.72D-04
 IDIUse=1 WtCom= 1.00D+00 WtEn= 0.00D+00
 Coeff-Com: -0.927D-03 0.225D+00 0.106D+00 0.236D+00 0.433D+00
 Coeff:     -0.927D-03 0.225D+00 0.106D+00 0.236D+00 0.433D+00
 Gap=     0.124 Goal=   None    Shift=    0.000
 RMSDP=1.07D-05 MaxDP=4.56D-04 DE=-2.30D-04 OVMax= 1.16D-03

 Cycle   6  Pass 1  IDiag  1:
 RMSU=  4.28D-06    CP:  9.99D-01  8.57D-01  4.28D-01  3.81D-01  5.98D-01
 E= -7517.81820549911     Delta-E=       -0.000018237033 Rises=F Damp=F
 DIIS: error= 2.24D-05 at cycle   6 NSaved=   6.
 NSaved= 6 IEnMin= 6 EnMin= -7517.81820549911     IErMin= 6 ErrMin= 2.24D-05
 ErrMax= 2.24D-05  0.00D+00 EMaxC= 1.00D-01 BMatC= 5.69D-07 BMatP= 1.74D-05
 IDIUse=1 WtCom= 1.00D+00 WtEn= 0.00D+00
 Coeff-Com: -0.499D-03 0.949D-01 0.447D-01 0.109D+00 0.236D+00 0.516D+00
 Coeff:     -0.499D-03 0.949D-01 0.447D-01 0.109D+00 0.236D+00 0.516D+00
 Gap=     0.124 Goal=   None    Shift=    0.000
 RMSDP=3.56D-06 MaxDP=1.27D-04 DE=-1.82D-05 OVMax= 4.11D-04

 Cycle   7  Pass 1  IDiag  1:
 RMSU=  2.93D-06    CP:  9.99D-01  8.59D-01  4.30D-01  3.85D-01  6.58D-01
                    CP:  6.08D-01
 E= -7517.81820549204     Delta-E=        0.000000007070 Rises=F Damp=F
 DIIS: error= 3.06D-05 at cycle   7 NSaved=   7.
 NSaved= 7 IEnMin= 6 EnMin= -7517.81820549911     IErMin= 6 ErrMin= 2.24D-05
 ErrMax= 3.06D-05  0.00D+00 EMaxC= 1.00D-01 BMatC= 5.30D-07 BMatP= 5.69D-07
 IDIUse=1 WtCom= 1.00D+00 WtEn= 0.00D+00
 Coeff-Com: -0.166D-03 0.153D-01 0.786D-02 0.259D-01 0.800D-01 0.475D+00
 Coeff-Com:  0.396D+00
 Coeff:     -0.166D-03 0.153D-01 0.786D-02 0.259D-01 0.800D-01 0.475D+00
 Coeff:      0.396D+00
 Gap=     0.124 Goal=   None    Shift=    0.000
 RMSDP=2.30D-06 MaxDP=9.53D-05 DE= 7.07D-09 OVMax= 2.70D-04

 Cycle   8  Pass 1  IDiag  1:
 RMSU=  9.61D-07    CP:  9.99D-01  8.61D-01  4.33D-01  3.84D-01  6.69D-01
                    CP:  9.16D-01  4.87D-01
 E= -7517.81820612956     Delta-E=       -0.000000637518 Rises=F Damp=F
 DIIS: error= 6.00D-06 at cycle   8 NSaved=   8.
 NSaved= 8 IEnMin= 8 EnMin= -7517.81820612956     IErMin= 8 ErrMin= 6.00D-06
 ErrMax= 6.00D-06  0.00D+00 EMaxC= 1.00D-01 BMatC= 5.36D-08 BMatP= 5.30D-07
 IDIUse=1 WtCom= 1.00D+00 WtEn= 0.00D+00
 Coeff-Com:  0.110D-05-0.133D-01-0.539D-02-0.792D-02-0.158D-03 0.230D+00
 Coeff-Com:  0.284D+00 0.513D+00
 Coeff:      0.110D-05-0.133D-01-0.539D-02-0.792D-02-0.158D-03 0.230D+00
 Coeff:      0.284D+00 0.513D+00
 Gap=     0.124 Goal=   None    Shift=    0.000
 RMSDP=6.93D-07 MaxDP=4.97D-05 DE=-6.38D-07 OVMax= 7.41D-05

 Cycle   9  Pass 1  IDiag  1:
 RMSU=  2.95D-07    CP:  9.99D-01  8.61D-01  4.34D-01  3.86D-01  6.79D-01
                    CP:  9.37D-01  6.03D-01  5.57D-01
 E= -7517.81820618170     Delta-E=       -0.000000052140 Rises=F Damp=F
 DIIS: error= 1.20D-06 at cycle   9 NSaved=   9.
 NSaved= 9 IEnMin= 9 EnMin= -7517.81820618170     IErMin= 9 ErrMin= 1.20D-06
 ErrMax= 1.20D-06  0.00D+00 EMaxC= 1.00D-01 BMatC= 3.74D-09 BMatP= 5.36D-08
 IDIUse=1 WtCom= 1.00D+00 WtEn= 0.00D+00
 Coeff-Com:  0.185D-04-0.920D-02-0.379D-02-0.697D-02-0.892D-02 0.820D-01
 Coeff-Com:  0.121D+00 0.299D+00 0.526D+00
 Coeff:      0.185D-04-0.920D-02-0.379D-02-0.697D-02-0.892D-02 0.820D-01
 Coeff:      0.121D+00 0.299D+00 0.526D+00
 Gap=     0.124 Goal=   None    Shift=    0.000
 RMSDP=1.91D-07 MaxDP=1.17D-05 DE=-5.21D-08 OVMax= 2.79D-05

 Cycle  10  Pass 1  IDiag  1:
 RMSU=  1.17D-07    CP:  9.99D-01  8.61D-01  4.34D-01  3.87D-01  6.83D-01
                    CP:  9.44D-01  6.01D-01  6.40D-01  7.53D-01
 E= -7517.81820618482     Delta-E=       -0.000000003116 Rises=F Damp=F
 DIIS: error= 5.42D-07 at cycle  10 NSaved=  10.
 NSaved=10 IEnMin=10 EnMin= -7517.81820618482     IErMin=10 ErrMin= 5.42D-07
 ErrMax= 5.42D-07  0.00D+00 EMaxC= 1.00D-01 BMatC= 3.69D-10 BMatP= 3.74D-09
 IDIUse=1 WtCom= 1.00D+00 WtEn= 0.00D+00
 Coeff-Com:  0.105D-04-0.453D-02-0.185D-02-0.348D-02-0.546D-02 0.336D-01
 Coeff-Com:  0.536D-01 0.142D+00 0.316D+00 0.471D+00
 Coeff:      0.105D-04-0.453D-02-0.185D-02-0.348D-02-0.546D-02 0.336D-01
 Coeff:      0.536D-01 0.142D+00 0.316D+00 0.471D+00
 Gap=     0.124 Goal=   None    Shift=    0.000
 RMSDP=9.25D-08 MaxDP=3.37D-06 DE=-3.12D-09 OVMax= 1.09D-05

 Cycle  11  Pass 1  IDiag  1:
 RMSU=  7.48D-08    CP:  9.99D-01  8.62D-01  4.34D-01  3.87D-01  6.84D-01
                    CP:  9.47D-01  6.04D-01  6.48D-01  8.35D-01  6.37D-01
 E= -7517.81820618511     Delta-E=       -0.000000000293 Rises=F Damp=F
 DIIS: error= 4.79D-07 at cycle  11 NSaved=  11.
 NSaved=11 IEnMin=11 EnMin= -7517.81820618511     IErMin=11 ErrMin= 4.79D-07
 ErrMax= 4.79D-07  0.00D+00 EMaxC= 1.00D-01 BMatC= 2.67D-10 BMatP= 3.69D-10
 IDIUse=1 WtCom= 1.00D+00 WtEn= 0.00D+00
 Coeff-Com:  0.148D-05-0.968D-04-0.143D-04-0.102D-03-0.128D-02-0.612D-02
 Coeff-Com: -0.511D-02-0.215D-02 0.695D-01 0.474D+00 0.472D+00
 Coeff:      0.148D-05-0.968D-04-0.143D-04-0.102D-03-0.128D-02-0.612D-02
 Coeff:     -0.511D-02-0.215D-02 0.695D-01 0.474D+00 0.472D+00
 Gap=     0.124 Goal=   None    Shift=    0.000
 RMSDP=5.29D-08 MaxDP=2.16D-06 DE=-2.93D-10 OVMax= 6.99D-06

 Cycle  12  Pass 1  IDiag  1:
 RMSU=  1.74D-08    CP:  9.99D-01  8.62D-01  4.34D-01  3.87D-01  6.84D-01
                    CP:  9.50D-01  6.08D-01  6.47D-01  8.58D-01  9.12D-01
                    CP:  5.81D-01
 E= -7517.81820618545     Delta-E=       -0.000000000340 Rises=F Damp=F
 DIIS: error= 8.13D-08 at cycle  12 NSaved=  12.
 NSaved=12 IEnMin=12 EnMin= -7517.81820618545     IErMin=12 ErrMin= 8.13D-08
 ErrMax= 8.13D-08  0.00D+00 EMaxC= 1.00D-01 BMatC= 8.12D-12 BMatP= 2.67D-10
 IDIUse=1 WtCom= 1.00D+00 WtEn= 0.00D+00
 Coeff-Com: -0.503D-06 0.464D-03 0.209D-03 0.317D-03 0.387D-04-0.644D-02
 Coeff-Com: -0.896D-02-0.166D-01-0.117D-02 0.186D+00 0.233D+00 0.613D+00
 Coeff:     -0.503D-06 0.464D-03 0.209D-03 0.317D-03 0.387D-04-0.644D-02
 Coeff:     -0.896D-02-0.166D-01-0.117D-02 0.186D+00 0.233D+00 0.613D+00
 Gap=     0.124 Goal=   None    Shift=    0.000
 RMSDP=1.17D-08 MaxDP=5.90D-07 DE=-3.40D-10 OVMax= 2.17D-06

 Cycle  13  Pass 1  IDiag  1:
 RMSU=  5.47D-09    CP:  9.99D-01  8.62D-01  4.34D-01  3.87D-01  6.84D-01
                    CP:  9.51D-01  6.08D-01  6.50D-01  8.72D-01  9.31D-01
                    CP:  6.49D-01  8.25D-01
 E= -7517.81820618523     Delta-E=        0.000000000216 Rises=F Damp=F
 DIIS: error= 1.59D-08 at cycle  13 NSaved=  13.
 NSaved=13 IEnMin=12 EnMin= -7517.81820618545     IErMin=13 ErrMin= 1.59D-08
 ErrMax= 1.59D-08  0.00D+00 EMaxC= 1.00D-01 BMatC= 6.10D-13 BMatP= 8.12D-12
 IDIUse=1 WtCom= 1.00D+00 WtEn= 0.00D+00
 Coeff-Com: -0.354D-06 0.226D-03 0.101D-03 0.158D-03 0.134D-03-0.250D-02
 Coeff-Com: -0.378D-02-0.762D-02-0.709D-02 0.483D-01 0.655D-01 0.294D+00
 Coeff-Com:  0.613D+00
 Coeff:     -0.354D-06 0.226D-03 0.101D-03 0.158D-03 0.134D-03-0.250D-02
 Coeff:     -0.378D-02-0.762D-02-0.709D-02 0.483D-01 0.655D-01 0.294D+00
 Coeff:      0.613D+00
 Gap=     0.124 Goal=   None    Shift=    0.000
 RMSDP=3.21D-09 MaxDP=1.95D-07 DE= 2.16D-10 OVMax= 4.97D-07

 SCF Done:  E(RPBE1PBE) =  -7517.81820619     A.U. after   13 cycles
            NFock= 13  Conv=0.32D-08     -V/T= 2.1284
 KE= 6.662180436244D+03 PE=-2.477215920451D+04 EE= 7.001799110233D+03
 Leave Link  502 at Tue Mar  6 15:06:11 2018, MaxMem=   536870912 cpu:      2276.8
 (Enter /share/apps//mg09/l701.exe)
 Compute integral first derivatives.
 ... and contract with generalized density number  0.
   1 Symmetry operations used in ECPInt.
 ECPInt:  NShTT=   10440 NPrTT=   41973 LenC2=    9692 LenP2D=   27661.
 LDataN:  DoStor=T MaxTD1= 9 Len=  602
 Leave Link  701 at Tue Mar  6 15:06:29 2018, MaxMem=   536870912 cpu:        69.8
 (Enter /share/apps//mg09/l702.exe)
 L702 exits ... SP integral derivatives will be done elsewhere.
 Leave Link  702 at Tue Mar  6 15:06:29 2018, MaxMem=   536870912 cpu:         0.1
 (Enter /share/apps//mg09/l703.exe)
 Compute integral first derivatives, UseDBF=F ICtDFT=           0.
 Integral derivatives from FoFJK, PRISM(SPDF).
 Calling FoFJK, ICntrl=      2127 FMM=F ISym2X=0 I1Cent= 0 IOpClX= 0 NMat=1 NMatS=1 NMatT=0.
 FoFJK:  IHMeth= 1 ICntrl=    2127 DoSepK=F KAlg= 0 I1Cent=   0 FoldK=F
 IRaf=         0 NMat=   1 IRICut=       1 DoRegI=T DoRafI=F ISym2E= 0.
 FoFCou: FMM=F IPFlag=           0 FMFlag=      100000 FMFlg1=         800
         NFxFlg=           0 DoJE=F BraDBF=F KetDBF=F FulRan=T
         wScrn=  0.000000 ICntrl=    2127 IOpCl=  0 I1Cent=           0 NGrid=           0
         NMat0=    1 NMatS0=      1 NMatT0=    0 NMatD0=    1 NMtDS0=    0 NMtDT0=    0
 Symmetry not used in FoFCou.
 Defaulting to unpruned grid for atomic number  50.
 Defaulting to unpruned grid for atomic number  50.
 Defaulting to unpruned grid for atomic number  50.
 Defaulting to unpruned grid for atomic number  50.
 Leave Link  703 at Tue Mar  6 15:09:24 2018, MaxMem=   536870912 cpu:       699.3
 (Enter /share/apps//mg09/l716.exe)
 Dipole        = 4.46349742D-01-7.18948262D-01-1.84711416D-02
 ***** Axes restored to original set *****
 -------------------------------------------------------------------
 Center     Atomic                   Forces (Hartrees/Bohr)
 Number     Number              X              Y              Z
 -------------------------------------------------------------------
      1       50           0.005338782   -0.004030174    0.002954284
      2       83           0.002062458    0.001839909   -0.001064525
      3       83           0.002412037    0.002605927    0.001038845
      4       32          -0.002361617    0.001848245    0.006115106
      5       83           0.000513313    0.000481306    0.001549209
      6       83          -0.000957366    0.002249024   -0.000049046
      7       50          -0.006941802   -0.003991462   -0.000105587
      8       32          -0.002583064    0.004623699   -0.005987473
      9       32           0.002517261   -0.005626474   -0.004450812
 -------------------------------------------------------------------
 Cartesian Forces:  Max     0.006941802 RMS     0.003426631
 Leave Link  716 at Tue Mar  6 15:09:24 2018, MaxMem=   536870912 cpu:         0.1
 (Enter /share/apps//mg09/l103.exe)

 GradGradGradGradGradGradGradGradGradGradGradGradGradGradGradGradGradGrad
 Berny optimization.
 Search for a local minimum.
 Step number   2 out of a maximum of  100
 All quantities printed in internal units (Hartrees-Bohrs-Radians)
 Update second derivatives using D2CorN and points    1    2
 DE= -6.16D-03 DEPred=-4.50D-03 R= 1.37D+00
 TightC=F SS=  1.41D+00  RLast= 2.29D-01 DXNew= 5.0454D-01 6.8705D-01
 Trust test= 1.37D+00 RLast= 2.29D-01 DXMaxT set to 5.05D-01
 ITU=  1  0
     Eigenvalues ---    0.07897   0.09533   0.11733   0.12392   0.12941
     Eigenvalues ---    0.13849   0.14327   0.14815   0.15389   0.16315
     Eigenvalues ---    0.17407   0.21765   0.22706   0.23382   0.24384
     Eigenvalues ---    0.24595   0.26183   0.28106   0.28580   0.30531
     Eigenvalues ---    0.31426
 RFO step:  Lambda=-4.94056352D-04 EMin= 7.89661456D-02
 Quartic linear search produced a step of  0.63496.
 TrRot=  0.000102  0.000343 -0.000113  0.000014  0.000022  0.000014
 MatCor failed.
 Variable       Old X    -DE/DX   Delta X   Delta X   Delta X     New X
                                 (Linear)    (Quad)   (Total)
    X1       -1.76685   0.00534   0.03287   0.00870   0.04151  -1.72534
    Y1        4.35813  -0.00403  -0.03560   0.00016  -0.03515   4.32298
    Z1       -1.84398   0.00295   0.02588   0.00338   0.02918  -1.81480
    X2       -2.71668   0.00206   0.02924  -0.00383   0.02547  -2.69120
    Y2       -1.17125   0.00184   0.01274  -0.00079   0.01222  -1.15904
    Z2       -3.27330  -0.00106   0.02246  -0.02009   0.00231  -3.27099
    X3       -3.73630   0.00241   0.03303  -0.01025   0.02293  -3.71337
    Y3        0.26890   0.00261   0.00820   0.00602   0.01445   0.28335
    Z3        2.26179   0.00104  -0.01624   0.00986  -0.00641   2.25538
    X4        2.00974  -0.00236  -0.01885  -0.00040  -0.01927   1.99047
    Y4        1.20625   0.00185   0.00705   0.01284   0.02029   1.22654
[...]
     X                XX   X   X             X X    X                                                                                
     X                XX   X   X             X                                                                                       
     X                XX   X   X             X                                                                                       
     X                 X   X   X             X                                                                                       
     X                 X   X   X             X                                                                                       
     X                 X   X   X                                                                                                     
     X                 X   X   X                                                                                                     
                       X                                                                                                             
                       X                                                                                                             
                       X                                                                                                             
                       X                                                                                                             
                       X                                                                                                             
                       X                                                                                                             
                       X                                                                                                             
                       X                                                                                                             
 
 ***** Axes restored to original set *****
 -------------------------------------------------------------------
 Center     Atomic                   Forces (Hartrees/Bohr)
 Number     Number              X              Y              Z
 -------------------------------------------------------------------
      1       50           0.000094058    0.000024946    0.000002560
      2       83          -0.000036723    0.000031700   -0.000014799
      3       83          -0.000029583   -0.000000167    0.000002014
      4       32           0.000004081    0.000004098   -0.000037658
      5       83          -0.000050963   -0.000086267    0.000013482
      6       83          -0.000007681    0.000031482    0.000010596
      7       50          -0.000052519   -0.000008039    0.000049404
      8       32           0.000060111    0.000002075   -0.000005289
      9       32           0.000019220    0.000000172   -0.000020311
 -------------------------------------------------------------------
 Cartesian Forces:  Max     0.000094058 RMS     0.000036237
 Force constants in Cartesian coordinates: 
                1             2             3             4             5 
      1  0.466006D-01
      2 -0.117177D-01  0.609972D-01
      3  0.931963D-02 -0.171680D-02  0.482993D-01
      4  0.160405D-02 -0.451700D-02 -0.397116D-02  0.501089D-01
      5 -0.688696D-02 -0.268883D-01 -0.793116D-02  0.143392D-01  0.578475D-01
      6 -0.644313D-02 -0.844689D-02 -0.399427D-02  0.147299D-01  0.407264D-02
      7 -0.267977D-02 -0.205859D-02  0.538091D-02 -0.452281D-02 -0.185436D-02
      8 -0.152087D-02 -0.837761D-02  0.853782D-02 -0.300856D-02 -0.201341D-02
      9  0.724375D-02  0.922258D-02 -0.666669D-02  0.541163D-02 -0.941446D-02
     10 -0.132929D-01  0.116051D-01  0.827109D-02 -0.291585D-01 -0.162458D-01
     11  0.123500D-01 -0.901633D-02 -0.716831D-02 -0.147154D-01 -0.100717D-01
     12  0.701083D-02 -0.293754D-02 -0.791217D-02  0.256843D-02 -0.155163D-02
     13 -0.218944D-03  0.689743D-02  0.882647D-03 -0.576855D-02  0.775222D-02
     14 -0.371799D-03 -0.381382D-02  0.628356D-03  0.853509D-02 -0.159363D-01
     15  0.300205D-02  0.506460D-02 -0.763110D-03 -0.140283D-01  0.120516D-01
     16 -0.289175D-02 -0.616741D-03 -0.226641D-03 -0.557080D-02  0.254093D-02
     17  0.228033D-02 -0.515513D-02  0.895865D-04 -0.292130D-02  0.656525D-03
     18 -0.347881D-02  0.953375D-03 -0.372234D-03 -0.459583D-02  0.277332D-02
     19 -0.236703D-01  0.101393D-02 -0.983512D-02 -0.484380D-02 -0.197550D-02
     20  0.482835D-02 -0.147453D-02  0.184424D-02 -0.753257D-05 -0.454768D-02
     21 -0.107781D-01 -0.582901D-04 -0.150091D-02 -0.198258D-02 -0.926640D-03
     22 -0.418934D-02 -0.129714D-02 -0.375279D-02 -0.348226D-02  0.385799D-02
     23 -0.722140D-03 -0.401944D-02  0.494490D-02  0.361094D-03  0.394285D-02
     24 -0.844947D-03 -0.121918D-03 -0.346619D-02  0.782734D-03  0.367010D-02
     25 -0.126166D-02  0.690688D-03 -0.606856D-02  0.163382D-02 -0.152775D-02
     26  0.176077D-02 -0.225201D-02  0.771364D-03  0.193441D-02 -0.298951D-02
     27 -0.503130D-02 -0.195912D-02 -0.236238D-01  0.108516D-02 -0.274380D-02
                6             7             8             9            10 
      6  0.728131D-01
      7  0.704633D-02  0.740885D-01
      8 -0.642262D-02  0.658908D-02  0.629781D-01
      9 -0.300148D-01 -0.159827D-01  0.108515D-01  0.517852D-01
     10  0.574958D-02 -0.178642D-02  0.107992D-02  0.923019D-02  0.606736D-01
     11  0.673558D-03  0.194008D-02 -0.114173D-02  0.255076D-02  0.126331D-02
     12 -0.463970D-02  0.526465D-03  0.162963D-02 -0.429211D-02 -0.347828D-02
     13 -0.141199D-01 -0.179315D-01  0.155811D-01  0.499803D-02 -0.156848D-02
     14  0.160479D-01  0.182246D-01 -0.279317D-01 -0.590686D-02  0.328336D-03
     15 -0.231011D-01  0.656104D-02 -0.669416D-02  0.179850D-02  0.106112D-02
     16 -0.237290D-03 -0.525837D-02  0.520470D-02 -0.464287D-03 -0.888706D-02
     17  0.150826D-03 -0.248077D-02  0.408538D-02  0.623528D-03  0.113123D-01
     18 -0.170289D-02  0.309828D-02 -0.343645D-02 -0.168482D-02 -0.935441D-02
     19  0.225034D-02 -0.623305D-02 -0.401531D-02 -0.228895D-02 -0.371166D-02
     20  0.590065D-03  0.281359D-03 -0.556411D-02  0.776586D-03 -0.687210D-02
     21  0.173458D-03  0.625962D-03  0.288814D-02 -0.131271D-02 -0.666360D-02
     22 -0.472810D-02 -0.132793D-01  0.358569D-02 -0.398884D-02  0.159277D-02
     23 -0.501060D-02  0.921294D-03  0.408757D-02  0.185295D-03 -0.171681D-02
     24 -0.689524D-02 -0.342937D-02  0.688347D-03 -0.569980D-02 -0.465239D-02
     25 -0.424770D-02 -0.223973D-01 -0.234957D-01 -0.415878D-02 -0.386132D-02
     26 -0.165489D-02 -0.215627D-01 -0.261225D-01 -0.888892D-02 -0.754246D-03
     27 -0.263855D-02 -0.382689D-02 -0.804221D-02 -0.391276D-02 -0.163308D-03
               11            12            13            14            15 
     11  0.408290D-01
     12  0.426946D-03  0.665775D-01
     13 -0.179489D-02  0.258058D-03  0.670333D-01
     14 -0.166241D-02 -0.429234D-03  0.999724D-03  0.870345D-01
     15  0.631594D-02 -0.185052D-02  0.794292D-03 -0.805841D-02  0.365103D-01
     16  0.837490D-02 -0.762519D-02 -0.397806D-01 -0.183334D-01  0.123108D-01
     17 -0.136581D-01  0.112173D-01 -0.181992D-01 -0.142814D-01  0.327941D-02
     18  0.100483D-01 -0.177893D-01  0.130530D-01  0.445731D-02 -0.192858D-02
     19 -0.453580D-02 -0.329459D-02 -0.116515D-02 -0.908658D-03 -0.110266D-02
     20 -0.337768D-02 -0.904490D-02 -0.858864D-02 -0.223299D-02 -0.196382D-03
     21 -0.115232D-01 -0.198244D-01  0.903911D-03 -0.272666D-04 -0.224911D-02
     22 -0.402071D-02  0.390060D-02 -0.132831D-02 -0.708206D-02 -0.774971D-02
     23 -0.139743D-02  0.107916D-03 -0.475894D-02 -0.165919D-01 -0.815665D-02
     24  0.146896D-02 -0.728496D-02 -0.630618D-02 -0.748844D-02 -0.578976D-02
     25  0.113855D-02  0.133681D-03  0.728270D-03 -0.139181D-02 -0.848620D-03
     26 -0.503657D-03  0.581542D-03  0.211121D-02 -0.458401D-02 -0.360596D-02
     27 -0.279295D-02 -0.298436D-02 -0.463790D-03  0.776636D-03 -0.262657D-02
               16            17            18            19            20 
     16  0.757037D-01
     17 -0.812023D-02  0.753930D-01
     18 -0.157803D-01 -0.361407D-02  0.439132D-01
     19 -0.330493D-02  0.959371D-02  0.352181D-02  0.656658D-01
     20  0.684069D-02 -0.386212D-01 -0.475882D-02  0.410363D-02  0.622901D-01
     21  0.210044D-02 -0.468611D-02  0.263295D-02 -0.598426D-02  0.106634D-01
     22 -0.777068D-02  0.709850D-02  0.985136D-02 -0.448084D-04 -0.511800D-02
     23  0.534472D-02 -0.462227D-02 -0.504804D-02 -0.336492D-02 -0.663217D-02
     24  0.969341D-02 -0.592182D-02 -0.218312D-01 -0.734428D-03  0.535121D-02
     25 -0.223950D-02  0.143667D-02  0.368494D-02 -0.226921D-01  0.453224D-02
     26 -0.123557D-02 -0.379680D-02 -0.137491D-02  0.889174D-04  0.160340D-03
     27  0.229092D-03 -0.113862D-02 -0.123716D-02  0.174679D-01 -0.522543D-02
               21            22            23            24            25 
     21  0.438868D-01
     22  0.184136D-02  0.371359D-01
     23  0.626659D-02 -0.107047D-01  0.550443D-01
     24 -0.774296D-02  0.652800D-02  0.123773D-02  0.626844D-01
     25  0.199368D-01 -0.863399D-02  0.146405D-01 -0.103683D-02  0.587237D-01
     26 -0.259670D-02  0.136805D-01 -0.298114D-01  0.111584D-02  0.397669D-02
     27 -0.140631D-01 -0.190186D-02  0.547286D-02 -0.397435D-02 -0.739497D-02
               26            27 
     26  0.698996D-01
     27  0.156526D-01  0.550606D-01
 Leave Link  716 at Tue Mar  6 17:54:20 2018, MaxMem=   536870912 cpu:         0.1
 (Enter /share/apps//mg09/l103.exe)

 GradGradGradGradGradGradGradGradGradGradGradGradGradGradGradGradGradGrad
 Berny optimization.
 Search for a local minimum.
 Step number   1 out of a maximum of    2
 All quantities printed in internal units (Hartrees-Bohrs-Radians)
 Second derivative matrix not updated -- analytic derivatives used.
 ITU=  0
     Eigenvalues ---    0.01117   0.02124   0.02889   0.03879   0.04522
     Eigenvalues ---    0.04853   0.05261   0.05419   0.05603   0.06192
     Eigenvalues ---    0.06829   0.07238   0.08277   0.08670   0.09739
     Eigenvalues ---    0.10550   0.11584   0.12633   0.12980   0.13735
     Eigenvalues ---    0.14594
 Angle between quadratic step and forces=  38.41 degrees.
 Linear search not attempted -- first point.
 TrRot=  0.000016  0.000002 -0.000022  0.000005  0.000010  0.000005
 Variable       Old X    -DE/DX   Delta X   Delta X   Delta X     New X
                                 (Linear)    (Quad)   (Total)
    X1       -1.72281   0.00009   0.00000   0.00215   0.00210  -1.72071
    Y1        4.31531   0.00002   0.00000   0.00069   0.00067   4.31598
    Z1       -1.80672   0.00000   0.00000  -0.00061  -0.00062  -1.80734
    X2       -2.66971  -0.00004   0.00000  -0.00059  -0.00060  -2.67031
    Y2       -1.16777   0.00003   0.00000   0.00024   0.00021  -1.16756
    Z2       -3.28230  -0.00001   0.00000   0.00044   0.00044  -3.28185
    X3       -3.73374  -0.00003   0.00000  -0.00044  -0.00041  -3.73415
    Y3        0.28668   0.00000   0.00000  -0.00079  -0.00082   0.28586
    Z3        2.25963   0.00000   0.00000  -0.00019  -0.00018   2.25945
    X4        1.98800   0.00000   0.00000  -0.00009  -0.00012   1.98788
    Y4        1.25403   0.00000   0.00000  -0.00005  -0.00003   1.25400
    Z4       -4.22057  -0.00004   0.00000  -0.00075  -0.00079  -4.22136
    X5       -0.41957  -0.00005   0.00000  -0.00058  -0.00051  -0.42008
    Y5       -4.21889  -0.00009   0.00000  -0.00089  -0.00089  -4.21978
    Z5        1.03491   0.00001   0.00000   0.00070   0.00068   1.03559
    X6        4.42919  -0.00001   0.00000  -0.00058  -0.00055   4.42864
    Y6       -1.72961   0.00003   0.00000   0.00034   0.00039  -1.72922
    Z6       -0.38698   0.00001   0.00000  -0.00026  -0.00032  -0.38730
    X7        3.62896  -0.00005   0.00000  -0.00074  -0.00076   3.62820
    Y7        3.77304  -0.00001   0.00000   0.00004   0.00008   3.77312
    Z7        0.28066   0.00005   0.00000   0.00134   0.00128   0.28194
    X8        1.81372   0.00006   0.00000   0.00183   0.00189   1.81560
    Y8       -0.19473   0.00000   0.00000   0.00068   0.00070  -0.19403
    Z8        4.14291  -0.00001   0.00000  -0.00029  -0.00033   4.14258
    X9       -0.47333   0.00002   0.00000  -0.00104  -0.00103  -0.47436
    Y9        4.14625   0.00000   0.00000  -0.00031  -0.00031   4.14594
    Z9        3.51969  -0.00002   0.00000  -0.00015  -0.00017   3.51952
         Item               Value     Threshold  Converged?
 Maximum Force            0.000094     0.000450     YES
 RMS     Force            0.000036     0.000300     YES
 Maximum Displacement     0.002102     0.001800     NO 
 RMS     Displacement     0.000794     0.001200     YES
 Predicted change in Energy=-2.990179D-07
 GradGradGradGradGradGradGradGradGradGradGradGradGradGradGradGradGradGrad

 Leave Link  103 at Tue Mar  6 17:54:20 2018, MaxMem=   536870912 cpu:         0.1
 (Enter /share/apps//mg09/l9999.exe)
 1\1\GINC-COMPUTE-0-5\Freq\RPBE1PBE\def2TZVP\Bi4Ge3Sn2\RODRIGO\06-Mar-2
 018\0\\#P Geom=AllCheck Guess=TCheck SCRF=Check GenChk RPBE1PBE/def2TZ
 VP Freq\\01Final_coords.xyz_39\\0,1\Sn,-0.9116739894,2.2835611524,-0.9
 560760378\Bi,-1.4127517495,-0.6179595193,-1.7369173501\Bi,-1.975812089
 ,0.1517060461,1.1957446574\Ge,1.052004163,0.6636020326,-2.2334316688\B
 i,-0.2220267396,-2.2325419059,0.5476507544\Bi,2.3438280389,-0.91527213
 66,-0.2047825321\Sn,1.9203608619,1.9966076558,0.1485187239\Ge,0.959777
 5338,-0.1030464498,2.1923326978\Ge,-0.2504750292,2.1941031242,1.862539
 7551\\Version=ES64L-G09RevD.01\State=1-A\HF=-7517.819877\RMSD=2.975e-0
 9\RMSF=3.624e-05\ZeroPoint=0.0058733\Thermal=0.0232963\Dipole=-0.45352
 95,-0.7779939,0.0229106\DipoleDeriv=0.0795892,-0.1631367,0.0528352,-0.
 1025901,0.191166,-0.1561329,0.001896,-0.1114776,0.0493239,0.0164164,0.
 0176841,0.08581,-0.0448983,-0.0515595,0.0317557,0.0049924,0.0225884,-0
 .0556819,0.0722265,0.0245614,-0.0113183,-0.0096376,0.014724,0.0221904,
 0.0236205,0.0062334,0.0617088,-0.1835684,0.0104292,-0.1167106,0.030295
 1,-0.1259662,-0.0702869,-0.0578576,-0.0233586,0.0202073,-0.0950708,0.0
 393366,-0.0212216,0.008697,0.0216641,-0.0259548,-0.0159808,-0.0323182,
 0.0313714,0.0653115,-0.0764224,0.0329609,0.0174178,-0.0793066,0.037880
 8,0.0553394,0.0415387,-0.1082559,0.1941801,0.2208107,0.0462561,0.18492
 46,0.1248011,-0.0216931,0.0376158,-0.0090337,-0.009859,0.0531379,-0.03
 02708,-0.0006696,-0.0496964,-0.0753721,-0.0315916,-0.0151726,-0.031444
 8,0.0143662,-0.2022224,-0.0429921,-0.0679422,-0.0345122,-0.0201508,0.2
 138325,-0.0344532,0.1372725,-0.0031808\Polar=379.4819414,3.2743815,388
 .8560578,2.3811501,-0.308632,360.6023065\PG=C01 [X(Bi4Ge3Sn2)]\NImag=0
 \\0.04660062,-0.01171768,0.06099720,0.00931963,-0.00171680,0.04829934,
 0.00160405,-0.00451700,-0.00397116,0.05010887,-0.00688696,-0.02688832,
 -0.00793116,0.01433925,0.05784749,-0.00644313,-0.00844689,-0.00399427,
 0.01472989,0.00407264,0.07281309,-0.00267977,-0.00205859,0.00538091,-0
 .00452281,-0.00185436,0.00704633,0.07408852,-0.00152087,-0.00837761,0.
 00853782,-0.00300856,-0.00201341,-0.00642262,0.00658908,0.06297813,0.0
 0724375,0.00922258,-0.00666669,0.00541163,-0.00941446,-0.03001479,-0.0
 1598274,0.01085149,0.05178517,-0.01329290,0.01160510,0.00827109,-0.029
 15851,-0.01624582,0.00574958,-0.00178642,0.00107992,0.00923019,0.06067
 359,0.01235000,-0.00901633,-0.00716831,-0.01471544,-0.01007168,0.00067
 356,0.00194008,-0.00114173,0.00255076,0.00126331,0.04082899,0.00701083
 ,-0.00293754,-0.00791217,0.00256843,-0.00155163,-0.00463970,0.00052646
 ,0.00162963,-0.00429211,-0.00347828,0.00042695,0.06657747,-0.00021894,
 0.00689743,0.00088265,-0.00576855,0.00775222,-0.01411992,-0.01793150,0
 .01558109,0.00499803,-0.00156848,-0.00179489,0.00025806,0.06703327,-0.
 00037180,-0.00381382,0.00062836,0.00853509,-0.01593626,0.01604791,0.01
 822456,-0.02793171,-0.00590686,0.00032834,-0.00166241,-0.00042923,0.00
 099972,0.08703451,0.00300205,0.00506460,-0.00076311,-0.01402827,0.0120
 5162,-0.02310112,0.00656104,-0.00669416,0.00179850,0.00106112,0.006315
 94,-0.00185052,0.00079429,-0.00805841,0.03651026,-0.00289175,-0.000616
 74,-0.00022664,-0.00557080,0.00254093,-0.00023729,-0.00525837,0.005204
 70,-0.00046429,-0.00888706,0.00837490,-0.00762519,-0.03978060,-0.01833
 338,0.01231076,0.07570370,0.00228033,-0.00515513,0.00008959,-0.0029213
 0,0.00065652,0.00015083,-0.00248077,0.00408538,0.00062353,0.01131231,-
 0.01365807,0.01121727,-0.01819922,-0.01428137,0.00327941,-0.00812023,0
 .07539298,-0.00347881,0.00095337,-0.00037223,-0.00459583,0.00277332,-0
 .00170289,0.00309828,-0.00343645,-0.00168482,-0.00935441,0.01004828,-0
 .01778926,0.01305295,0.00445731,-0.00192858,-0.01578030,-0.00361407,0.
 04391319,-0.02367031,0.00101393,-0.00983512,-0.00484380,-0.00197550,0.
 00225034,-0.00623305,-0.00401531,-0.00228895,-0.00371166,-0.00453580,-
 0.00329459,-0.00116515,-0.00090866,-0.00110266,-0.00330493,0.00959371,
 0.00352181,0.06566576,0.00482835,-0.00147453,0.00184424,-0.00000753,-0
 .00454768,0.00059007,0.00028136,-0.00556411,0.00077659,-0.00687210,-0.
 00337768,-0.00904490,-0.00858864,-0.00223299,-0.00019638,0.00684069,-0
 .03862125,-0.00475882,0.00410363,0.06229007,-0.01077807,-0.00005829,-0
 .00150091,-0.00198258,-0.00092664,0.00017346,0.00062596,0.00288814,-0.
 00131271,-0.00666360,-0.01152318,-0.01982439,0.00090391,-0.00002727,-0
 .00224911,0.00210044,-0.00468611,0.00263295,-0.00598426,0.01066344,0.0
 4388676,-0.00418934,-0.00129714,-0.00375279,-0.00348226,0.00385799,-0.
 00472810,-0.01327929,0.00358569,-0.00398884,0.00159277,-0.00402071,0.0
 0390060,-0.00132831,-0.00708206,-0.00774971,-0.00777068,0.00709850,0.0
 0985136,-0.00004481,-0.00511800,0.00184136,0.03713590,-0.00072214,-0.0
 0401944,0.00494490,0.00036109,0.00394285,-0.00501060,0.00092129,0.0040
 8757,0.00018529,-0.00171681,-0.00139743,0.00010792,-0.00475894,-0.0165
 9195,-0.00815665,0.00534472,-0.00462227,-0.00504804,-0.00336492,-0.006
 63217,0.00626659,-0.01070475,0.05504427,-0.00084495,-0.00012192,-0.003
 46619,0.00078273,0.00367010,-0.00689524,-0.00342937,0.00068835,-0.0056
 9980,-0.00465239,0.00146896,-0.00728496,-0.00630618,-0.00748844,-0.005
 78976,0.00969341,-0.00592182,-0.02183119,-0.00073443,0.00535121,-0.007
 74296,0.00652800,0.00123773,0.06268444,-0.00126166,0.00069069,-0.00606
 856,0.00163382,-0.00152775,-0.00424770,-0.02239731,-0.02349574,-0.0041
 5878,-0.00386132,0.00113855,0.00013368,0.00072827,-0.00139181,-0.00084
 862,-0.00223950,0.00143667,0.00368494,-0.02269206,0.00453224,0.0199368
 4,-0.00863399,0.01464045,-0.00103683,0.05872375,0.00176077,-0.00225201
 ,0.00077136,0.00193441,-0.00298951,-0.00165489,-0.02156266,-0.02612251
 ,-0.00888892,-0.00075425,-0.00050366,0.00058154,0.00211121,-0.00458401
 ,-0.00360596,-0.00123557,-0.00379680,-0.00137491,0.00008892,0.00016034
 ,-0.00259670,0.01368048,-0.02981143,0.00111584,0.00397669,0.06989958,-
 0.00503130,-0.00195912,-0.02362377,0.00108516,-0.00274380,-0.00263855,
 -0.00382689,-0.00804221,-0.00391276,-0.00016331,-0.00279295,-0.0029843
 6,-0.00046379,0.00077664,-0.00262657,0.00022909,-0.00113862,-0.0012371
 6,0.01746787,-0.00522543,-0.01406308,-0.00190186,0.00547286,-0.0039743
 5,-0.00739497,0.01565263,0.05506060\\-0.00009406,-0.00002495,-0.000002
 56,0.00003672,-0.00003170,0.00001480,0.00002958,0.00000017,-0.00000201
 ,-0.00000408,-0.00000410,0.00003766,0.00005096,0.00008627,-0.00001348,
 0.00000768,-0.00003148,-0.00001060,0.00005252,0.00000804,-0.00004940,-
 0.00006011,-0.00000208,0.00000529,-0.00001922,-0.00000017,0.00002031\\
 \@


 There are more things in heaven and earth, Horatio,
 than are dreamt of in your philosophy.
                   -- Hamlet, Act I, Scene 5
 Job cpu time:       0 days  3 hours 49 minutes 15.7 seconds.
 File lengths (MBytes):  RWF=    299 Int=      0 D2E=      0 Chk=     16 Scr=      1
 Normal termination of Gaussian 09 at Tue Mar  6 17:54:22 2018.
