 Entering Gaussian System, Link 0=/share/apps/mg09/g09
 Initial command:
 /share/apps//mg09/l1.exe "/state/partition1/gauss_tmp/Gau-1157.inp" -scrdir="/state/partition1/gauss_tmp/"
 Entering Link 1 = /share/apps//mg09/l1.exe PID=      1159.
  
 Copyright (c) 1988,1990,1992,1993,1995,1998,2003,2009,2013,
            Gaussian, Inc.  All Rights Reserved.
  
 This is part of the Gaussian(R) 09 program.  It is based on
 the Gaussian(R) 03 system (copyright 2003, Gaussian, Inc.),
 the Gaussian(R) 98 system (copyright 1998, Gaussian, Inc.),
 the Gaussian(R) 94 system (copyright 1995, Gaussian, Inc.),
 the Gaussian 92(TM) system (copyright 1992, Gaussian, Inc.),
 the Gaussian 90(TM) system (copyright 1990, Gaussian, Inc.),
 the Gaussian 88(TM) system (copyright 1988, Gaussian, Inc.),
 the Gaussian 86(TM) system (copyright 1986, Carnegie Mellon
 University), and the Gaussian 82(TM) system (copyright 1983,
 Carnegie Mellon University). Gaussian is a federally registered
 trademark of Gaussian, Inc.
  
 This software contains proprietary and confidential information,
 including trade secrets, belonging to Gaussian, Inc.
  
 This software is provided under written license and may be
 used, copied, transmitted, or stored only in accord with that
 written license.
  
 The following legend is applicable only to US Government
 contracts under FAR:
  
                    RESTRICTED RIGHTS LEGEND
  
 Use, reproduction and disclosure by the US Government is
 subject to restrictions as set forth in subparagraphs (a)
 and (c) of the Commercial Computer Software - Restricted
 Rights clause in FAR 52.227-19.
  
 Gaussian, Inc.
 340 Quinnipiac St., Bldg. 40, Wallingford CT 06492
  
  
 ---------------------------------------------------------------
 Warning -- This program may not be used in any manner that
 competes with the business of Gaussian, Inc. or will provide
 assistance to any competitor of Gaussian, Inc.  The licensee
 of this program is prohibited from giving any competitor of
 Gaussian, Inc. access to this program.  By using this program,
 the user acknowledges that Gaussian, Inc. is engaged in the
 business of creating and licensing software in the field of
 computational chemistry and represents and warrants to the
 licensee that it is not a competitor of Gaussian, Inc. and that
 it will not use this program in any manner prohibited above.
 ---------------------------------------------------------------
  

 Cite this work as:
 Gaussian 09, Revision D.01,
 M. J. Frisch, G. W. Trucks, H. B. Schlegel, G. E. Scuseria, 
 M. A. Robb, J. R. Cheeseman, G. Scalmani, V. Barone, B. Mennucci, 
 G. A. Petersson, H. Nakatsuji, M. Caricato, X. Li, H. P. Hratchian, 
 A. F. Izmaylov, J. Bloino, G. Zheng, J. L. Sonnenberg, M. Hada, 
 M. Ehara, K. Toyota, R. Fukuda, J. Hasegawa, M. Ishida, T. Nakajima, 
 Y. Honda, O. Kitao, H. Nakai, T. Vreven, J. A. Montgomery, Jr., 
 J. E. Peralta, F. Ogliaro, M. Bearpark, J. J. Heyd, E. Brothers, 
 K. N. Kudin, V. N. Staroverov, T. Keith, R. Kobayashi, J. Normand, 
 K. Raghavachari, A. Rendell, J. C. Burant, S. S. Iyengar, J. Tomasi, 
 M. Cossi, N. Rega, J. M. Millam, M. Klene, J. E. Knox, J. B. Cross, 
 V. Bakken, C. Adamo, J. Jaramillo, R. Gomperts, R. E. Stratmann, 
 O. Yazyev, A. J. Austin, R. Cammi, C. Pomelli, J. W. Ochterski, 
 R. L. Martin, K. Morokuma, V. G. Zakrzewski, G. A. Voth, 
 P. Salvador, J. J. Dannenberg, S. Dapprich, A. D. Daniels, 
 O. Farkas, J. B. Foresman, J. V. Ortiz, J. Cioslowski, 
 and D. J. Fox, Gaussian, Inc., Wallingford CT, 2013.
 
 ******************************************
 Gaussian 09:  ES64L-G09RevD.01 24-Apr-2013
                 6-Mar-2018 
 ******************************************
 %NProcShared=4
 Will use up to    4 processors via shared memory.
 %LindaWorkers=compute-0-5
 %chk=Isomer_34.chk
 %NProc=4
 Will use up to    4 processors via shared memory.
 %mem=4GB
 SetLPE:  input flags=" -vv -opt "Tsnet.Node.lindarsharg: ssh" "
 SetLPE:    new flags=" -vv -opt "Tsnet.Node.lindarsharg: ssh"  -nodelist 'compute-0-5.local'"
 Will use up to    1 processors via Linda.
 ----------------------------------------------------------------------
 #p PBE1PBE/Def2TZVP scf=(maxcycle=768) opt=(cartesian,maxcycle=512) fr
 eq
 ----------------------------------------------------------------------
 1/6=512,10=7,14=-1,18=10,26=3,38=1/1,3;
 2/12=2,17=6,18=5,29=2,40=1/2;
 3/5=44,7=101,11=2,16=1,25=1,30=1,71=1,74=-13/1,2,3;
 4//1;
 5/5=2,7=768,38=5/2;
 6/7=2,8=2,9=2,10=2,28=1/1;
 7/7=1,29=1/1,2,3,16;
 1/6=512,10=7,14=-1,18=10,26=3/3(2);
 2/29=1/2;
 99/12=1/99;
 2/29=1/2;
 3/5=44,7=101,11=2,16=1,25=1,30=1,71=1,74=-13/1,2,3;
 4/5=5,16=3,69=1/1;
 5/5=2,7=768,38=5/2;
 7/7=1/1,2,3,16;
 1/6=512,14=-1,18=10,26=3/3(-5);
 2/29=1/2;
 6/7=2,8=2,9=2,10=2,19=2,28=1/1;
 99/9=1,12=1/99;
 Leave Link    1 at Tue Mar  6 14:18:28 2018, MaxMem=   536870912 cpu:         0.2
 (Enter /share/apps//mg09/l101.exe)
 ---------------------
 01Final_coords.xyz_34
 ---------------------
 Symbolic Z-matrix:
 Charge =  0 Multiplicity = 1
 83                   -2.31784  -0.77636  -0.6859 
 83                    1.61538   1.71329  -0.60154 
 50                   -0.25296  -2.53805   0.85671 
 50                    1.12109   0.30431   2.20742 
 83                   -1.18164   1.98769   0.51423 
 32                    0.03613  -1.64119  -2.07861 
 83                    2.2534   -1.2194   -0.22024 
 32                   -0.64743   1.04478  -2.29083 
 32                   -1.70307  -0.33626   2.1585 
 
 NAtoms=      9 NQM=        9 NQMF=       0 NMMI=      0 NMMIF=      0
                NMic=       0 NMicF=      0.
                    Isotopes and Nuclear Properties:
 (Nuclear quadrupole moments (NQMom) in fm**2, nuclear magnetic moments (NMagM)
  in nuclear magnetons)

  Atom         1           2           3           4           5           6           7           8           9
 IAtWgt=         209         209         118         118         209          74         209          74          74
 AtmWgt= 208.9804000 208.9804000 117.9018000 117.9018000 208.9804000  73.9211788 208.9804000  73.9211788  73.9211788
 NucSpn=           9           9           0           0           9           0           9           0           0
 AtZEff=   0.0000000   0.0000000   0.0000000   0.0000000   0.0000000   0.0000000   0.0000000   0.0000000   0.0000000
 NQMom=  -51.6000000 -51.6000000   0.0000000   0.0000000 -51.6000000   0.0000000 -51.6000000   0.0000000   0.0000000
 NMagM=    4.1106000   4.1106000   0.0000000   0.0000000   4.1106000   0.0000000   4.1106000   0.0000000   0.0000000
 AtZNuc=  83.0000000  83.0000000  50.0000000  50.0000000  83.0000000  32.0000000  83.0000000  32.0000000  32.0000000
 Leave Link  101 at Tue Mar  6 14:18:28 2018, MaxMem=   536870912 cpu:         0.2
 (Enter /share/apps//mg09/l103.exe)

 GradGradGradGradGradGradGradGradGradGradGradGradGradGradGradGradGradGrad
 Berny optimization.
 Initialization pass.
 No Z-matrix variables, so optimization will use Cartesian coordinates.
 Trust Radius=3.00D-01 FncErr=1.00D-07 GrdErr=1.00D-06
 Number of steps in this run=    100 maximum allowed number of steps=    100.
 GradGradGradGradGradGradGradGradGradGradGradGradGradGradGradGradGradGrad

 Leave Link  103 at Tue Mar  6 14:18:28 2018, MaxMem=   536870912 cpu:         0.1
 (Enter /share/apps//mg09/l202.exe)
 ---------------------------------------------------------------------------------------------------
                            Z-MATRIX (ANGSTROMS AND DEGREES)
   CD    Cent   Atom    N1       Length/X        N2       Alpha/Y        N3        Beta/Z          J
 ---------------------------------------------------------------------------------------------------
      1      1  Bi       0  -2.317836         -0.776364         -0.685900
      2      2  Bi       0   1.615382          1.713287         -0.601541
      3      3  Sn       0  -0.252958         -2.538050          0.856714
      4      4  Sn       0   1.121092          0.304306          2.207415
      5      5  Bi       0  -1.181639          1.987685          0.514228
      6      6  Ge       0   0.036129         -1.641191         -2.078614
      7      7  Bi       0   2.253405         -1.219395         -0.220235
      8      8  Ge       0  -0.647425          1.044781         -2.290831
      9      9  Ge       0  -1.703066         -0.336264          2.158499
 ---------------------------------------------------------------------------------------------------
                         Z-Matrix orientation:                         
 ---------------------------------------------------------------------
 Center     Atomic      Atomic             Coordinates (Angstroms)
 Number     Number       Type             X           Y           Z
 ---------------------------------------------------------------------
      1         83           0       -2.317836   -0.776364   -0.685900
      2         83           0        1.615382    1.713287   -0.601541
      3         50           0       -0.252958   -2.538050    0.856714
      4         50           0        1.121092    0.304306    2.207415
      5         83           0       -1.181639    1.987685    0.514228
      6         32           0        0.036129   -1.641191   -2.078614
      7         83           0        2.253405   -1.219395   -0.220235
      8         32           0       -0.647425    1.044781   -2.290831
      9         32           0       -1.703066   -0.336264    2.158499
 ---------------------------------------------------------------------
                    Distance matrix (angstroms):
                    1          2          3          4          5
     1  Bi   0.000000
     2  Bi   4.655715   0.000000
     3  Sn   3.122005   4.867347   0.000000
     4  Sn   4.622266   3.181161   3.433860   0.000000
     5  Bi   3.220438   3.023832   4.632712   3.317110   0.000000
     6  Ge   2.868576   3.991028   3.082868   4.830336   4.623260
     7  Bi   4.616207   3.025408   3.029938   3.081766   4.756503
     8  Ge   2.946633   2.901878   4.785324   4.889803   3.007126
     9  Ge   2.943168   4.778135   2.940292   2.896306   2.894176
                    6          7          8          9
     6  Ge   0.000000
     7  Bi   2.923662   0.000000
     8  Ge   2.779699   4.222402   0.000000
     9  Ge   4.762432   4.700208   4.776840   0.000000
 Stoichiometry    Bi4Ge3Sn2
 Framework group  C1[X(Bi4Ge3Sn2)]
 Deg. of freedom    21
 Full point group                 C1      NOp   1
 Largest Abelian subgroup         C1      NOp   1
 Largest concise Abelian subgroup C1      NOp   1
                         Standard orientation:                         
 ---------------------------------------------------------------------
 Center     Atomic      Atomic             Coordinates (Angstroms)
 Number     Number       Type             X           Y           Z
 ---------------------------------------------------------------------
      1         83           0        2.317836    0.776365   -0.685900
      2         83           0       -1.615381   -1.713288   -0.601541
      3         50           0        0.252957    2.538050    0.856714
      4         50           0       -1.121092   -0.304307    2.207415
      5         83           0        1.181640   -1.987685    0.514228
      6         32           0       -0.036130    1.641191   -2.078614
      7         83           0       -2.253406    1.219394   -0.220235
      8         32           0        0.647426   -1.044781   -2.290831
      9         32           0        1.703066    0.336265    2.158499
 ---------------------------------------------------------------------
 Rotational constants (GHZ):      0.1034380      0.0940384      0.0795099
 Leave Link  202 at Tue Mar  6 14:18:28 2018, MaxMem=   536870912 cpu:         0.0
 (Enter /share/apps//mg09/l301.exe)
 Standard basis: def2TZVP (5D, 7F)
 Ernie: Thresh=  0.10000D-02 Tol=  0.10000D-05 Strict=F.
 There are   519 symmetry adapted cartesian basis functions of A   symmetry.
 There are   444 symmetry adapted basis functions of A   symmetry.
   444 basis functions,   963 primitive gaussians,   519 cartesian basis functions
   116 alpha electrons      116 beta electrons
       nuclear repulsion energy      3522.6350309273 Hartrees.
 IExCor= 1009 DFT=T Ex+Corr=PBE1PBE ExCW=0 ScaHFX=  0.250000
 ScaDFX=  0.750000  0.750000  1.000000  1.000000 ScalE2=  1.000000  1.000000
 IRadAn=      0 IRanWt=     -1 IRanGd=            0 ICorTp=0 IEmpDi=  4
 NAtoms=    9 NActive=    9 NUniq=    9 SFac= 1.00D+00 NAtFMM=   60 NAOKFM=F Big=F
 Integral buffers will be    131072 words long.
 Raffenetti 2 integral format.
 Two-electron integral symmetry is turned on.
 Leave Link  301 at Tue Mar  6 14:18:28 2018, MaxMem=   536870912 cpu:         0.2
 (Enter /share/apps//mg09/l302.exe)
 NPDir=0 NMtPBC=     1 NCelOv=     1 NCel=       1 NClECP=     1 NCelD=      1
         NCelK=      1 NCelE2=     1 NClLst=     1 CellRange=     0.0.
 One-electron integrals computed using PRISM.
   1 Symmetry operations used in ECPInt.
 ECPInt:  NShTT=   10440 NPrTT=   41973 LenC2=    9666 LenP2D=   27469.
 LDataN:  DoStor=T MaxTD1= 8 Len=  415
 NBasis=   444 RedAO= T EigKep=  1.63D-03  NBF=   444
 NBsUse=   444 1.00D-06 EigRej= -1.00D+00 NBFU=   444
 Precomputing XC quadrature grid using
 IXCGrd= 4 IRadAn=           0 IRanWt=          -1 IRanGd=           0 AccXCQ= 0.00D+00.
 Defaulting to unpruned grid for atomic number  83.
 Defaulting to unpruned grid for atomic number  83.
 Defaulting to unpruned grid for atomic number  50.
 Generated NRdTot=       0 NPtTot=           0 NUsed=           0 NTot=          32
 NSgBfM=   503   503   503   503   503 MxSgAt=     9 MxSgA2=     9.
 Leave Link  302 at Tue Mar  6 14:18:35 2018, MaxMem=   536870912 cpu:        25.9
 (Enter /share/apps//mg09/l303.exe)
 DipDrv:  MaxL=1.
 Leave Link  303 at Tue Mar  6 14:18:35 2018, MaxMem=   536870912 cpu:         0.2
 (Enter /share/apps//mg09/l401.exe)
 ExpMin= 4.62D-02 ExpMax= 4.66D+05 ExpMxC= 4.50D+03 IAcc=2 IRadAn=         4 AccDes= 0.00D+00
 Harris functional with IExCor= 1009 and IRadAn=       4 diagonalized for initial guess.
 HarFok:  IExCor= 1009 AccDes= 0.00D+00 IRadAn=         4 IDoV= 1 UseB2=F ITyADJ=14
 ICtDFT=  3500011 ScaDFX=  1.000000  1.000000  1.000000  1.000000
 Defaulting to unpruned grid for atomic number  83.
 Defaulting to unpruned grid for atomic number  83.
 Defaulting to unpruned grid for atomic number  83.
 Defaulting to unpruned grid for atomic number  83.
 FoFCou: FMM=F IPFlag=           0 FMFlag=      100000 FMFlg1=           0
         NFxFlg=           0 DoJE=T BraDBF=F KetDBF=T FulRan=T
         wScrn=  0.000000 ICntrl=     500 IOpCl=  0 I1Cent=   200000004 NGrid=           0
         NMat0=    1 NMatS0=      1 NMatT0=    0 NMatD0=    1 NMtDS0=    0 NMtDT0=    0
 Petite list used in FoFCou.
 Harris En= -7518.60054697730    
 JPrj=0 DoOrth=F DoCkMO=F.
 Leave Link  401 at Tue Mar  6 14:18:38 2018, MaxMem=   536870912 cpu:        10.5
 (Enter /share/apps//mg09/l502.exe)
 Closed shell SCF:
 Using DIIS extrapolation, IDIIS=  1040.
 Integral symmetry usage will be decided dynamically.
 IVT=     1410107 IEndB=     1410107 NGot=   536870912 MDV=   536322046
 LenX=   536322046 LenY=   536052166
 Requested convergence on RMS density matrix=1.00D-08 within 768 cycles.
 Requested convergence on MAX density matrix=1.00D-06.
 Requested convergence on             energy=1.00D-06.
 No special actions if energy rises.
 Fock matrices will be formed incrementally for  20 cycles.

 Cycle   1  Pass 1  IDiag  1:
 FoFJK:  IHMeth= 1 ICntrl=       0 DoSepK=F KAlg= 0 I1Cent=   0 FoldK=F
 IRaf= 880000000 NMat=   1 IRICut=       1 DoRegI=T DoRafI=F ISym2E= 0.
 FoFCou: FMM=F IPFlag=           0 FMFlag=      100000 FMFlg1=           0
         NFxFlg=           0 DoJE=F BraDBF=F KetDBF=F FulRan=T
         wScrn=  0.000000 ICntrl=       0 IOpCl=  0 I1Cent=           0 NGrid=           0
         NMat0=    1 NMatS0=      1 NMatT0=    0 NMatD0=    1 NMtDS0=    0 NMtDT0=    0
 Symmetry not used in FoFCou.
 Defaulting to unpruned grid for atomic number  83.
 Defaulting to unpruned grid for atomic number  83.
 Defaulting to unpruned grid for atomic number  83.
 Defaulting to unpruned grid for atomic number  83.
 E= -7517.27541840987    
 DIIS: error= 2.74D-02 at cycle   1 NSaved=   1.
 NSaved= 1 IEnMin= 1 EnMin= -7517.27541840987     IErMin= 1 ErrMin= 2.74D-02
 ErrMax= 2.74D-02  0.00D+00 EMaxC= 1.00D-01 BMatC= 1.43D+00 BMatP= 1.43D+00
 IDIUse=3 WtCom= 7.26D-01 WtEn= 2.74D-01
 Coeff-Com:  0.100D+01
 Coeff-En:   0.100D+01
 Coeff:      0.100D+01
 Gap=     0.129 Goal=   None    Shift=    0.000
 GapD=    0.129 DampG=1.000 DampE=0.500 DampFc=0.5000 IDamp=-1.
 Damping current iteration by 5.00D-01
 RMSDP=4.64D-03 MaxDP=1.99D-01              OVMax= 4.07D-01

 Cycle   2  Pass 1  IDiag  1:
 RMSU=  2.32D-03    CP:  1.00D+00
 E= -7517.38426709167     Delta-E=       -0.108848681804 Rises=F Damp=T
 DIIS: error= 8.28D-03 at cycle   2 NSaved=   2.
 NSaved= 2 IEnMin= 2 EnMin= -7517.38426709167     IErMin= 2 ErrMin= 8.28D-03
 ErrMax= 8.28D-03  0.00D+00 EMaxC= 1.00D-01 BMatC= 1.60D-01 BMatP= 1.43D+00
 IDIUse=3 WtCom= 9.17D-01 WtEn= 8.28D-02
 Coeff-Com:  0.463D-01 0.954D+00
 Coeff-En:   0.392D+00 0.608D+00
 Coeff:      0.749D-01 0.925D+00
 Gap=     0.152 Goal=   None    Shift=    0.000
 RMSDP=2.53D-03 MaxDP=1.68D-01 DE=-1.09D-01 OVMax= 4.25D-01

 Cycle   3  Pass 1  IDiag  1:
 RMSU=  2.10D-03    CP:  1.01D+00  3.95D-01
 E= -7517.09895101474     Delta-E=        0.285316076937 Rises=F Damp=F
 DIIS: error= 2.09D-02 at cycle   3 NSaved=   3.
 NSaved= 3 IEnMin= 2 EnMin= -7517.38426709167     IErMin= 2 ErrMin= 8.28D-03
 ErrMax= 2.09D-02  0.00D+00 EMaxC= 1.00D-01 BMatC= 5.72D-01 BMatP= 1.60D-01
 IDIUse=2 WtCom= 0.00D+00 WtEn= 1.00D+00
 EnCoef did     4 forward-backward iterations
 Coeff-En:   0.398D-01 0.623D+00 0.338D+00
 Coeff:      0.398D-01 0.623D+00 0.338D+00
 Gap=     0.190 Goal=   None    Shift=    0.000
 RMSDP=2.69D-03 MaxDP=1.45D-01 DE= 2.85D-01 OVMax= 3.11D-01

 Cycle   4  Pass 1  IDiag  1:
 RMSU=  9.08D-04    CP:  1.00D+00  9.64D-01 -2.61D-02
 E= -7517.64341969286     Delta-E=       -0.544468678123 Rises=F Damp=F
 DIIS: error= 1.02D-02 at cycle   4 NSaved=   4.
 NSaved= 4 IEnMin= 4 EnMin= -7517.64341969286     IErMin= 2 ErrMin= 8.28D-03
 ErrMax= 1.02D-02  0.00D+00 EMaxC= 1.00D-01 BMatC= 1.23D-01 BMatP= 1.60D-01
 IDIUse=3 WtCom= 8.98D-01 WtEn= 1.02D-01
 Coeff-Com: -0.638D-02 0.270D+00 0.287D+00 0.449D+00
 Coeff-En:   0.000D+00 0.000D+00 0.264D+00 0.736D+00
 Coeff:     -0.573D-02 0.243D+00 0.285D+00 0.478D+00
 Gap=     0.127 Goal=   None    Shift=    0.000
 RMSDP=1.22D-03 MaxDP=5.20D-02 DE=-5.44D-01 OVMax= 1.38D-01

 Cycle   5  Pass 1  IDiag  1:
 RMSU=  6.00D-04    CP:  1.00D+00  7.70D-01  3.41D-01  3.62D-01
 E= -7517.78687988535     Delta-E=       -0.143460192488 Rises=F Damp=F
 DIIS: error= 3.18D-03 at cycle   5 NSaved=   5.
 NSaved= 5 IEnMin= 5 EnMin= -7517.78687988535     IErMin= 5 ErrMin= 3.18D-03
 ErrMax= 3.18D-03  0.00D+00 EMaxC= 1.00D-01 BMatC= 2.26D-02 BMatP= 1.23D-01
 IDIUse=3 WtCom= 9.68D-01 WtEn= 3.18D-02
 Coeff-Com:  0.536D-02-0.167D-01 0.106D+00 0.368D+00 0.537D+00
 Coeff-En:   0.000D+00 0.000D+00 0.000D+00 0.179D+00 0.821D+00
 Coeff:      0.519D-02-0.162D-01 0.103D+00 0.362D+00 0.546D+00
 Gap=     0.119 Goal=   None    Shift=    0.000
 RMSDP=4.04D-04 MaxDP=2.06D-02 DE=-1.43D-01 OVMax= 4.34D-02

 Cycle   6  Pass 1  IDiag  1:
 RMSU=  1.71D-04    CP:  1.00D+00  7.70D-01  2.48D-01  5.96D-01  6.33D-01
 E= -7517.80789758994     Delta-E=       -0.021017704596 Rises=F Damp=F
 DIIS: error= 1.44D-03 at cycle   6 NSaved=   6.
 NSaved= 6 IEnMin= 6 EnMin= -7517.80789758994     IErMin= 6 ErrMin= 1.44D-03
 ErrMax= 1.44D-03  0.00D+00 EMaxC= 1.00D-01 BMatC= 2.11D-03 BMatP= 2.26D-02
 IDIUse=3 WtCom= 9.86D-01 WtEn= 1.44D-02
 Coeff-Com:  0.448D-02-0.214D-01 0.262D-01 0.136D+00 0.312D+00 0.542D+00
 Coeff-En:   0.000D+00 0.000D+00 0.000D+00 0.000D+00 0.818D-01 0.918D+00
 Coeff:      0.441D-02-0.210D-01 0.259D-01 0.134D+00 0.308D+00 0.548D+00
 Gap=     0.120 Goal=   None    Shift=    0.000
 RMSDP=2.11D-04 MaxDP=8.66D-03 DE=-2.10D-02 OVMax= 3.00D-02

 Cycle   7  Pass 1  IDiag  1:
 RMSU=  1.45D-04    CP:  1.00D+00  7.72D-01  2.63D-01  6.01D-01  7.01D-01
                    CP:  1.55D-01
 E= -7517.80714232881     Delta-E=        0.000755261131 Rises=F Damp=F
 DIIS: error= 1.69D-03 at cycle   7 NSaved=   7.
 NSaved= 7 IEnMin= 6 EnMin= -7517.80789758994     IErMin= 6 ErrMin= 1.44D-03
 ErrMax= 1.69D-03  0.00D+00 EMaxC= 1.00D-01 BMatC= 2.31D-03 BMatP= 2.11D-03
 IDIUse=3 WtCom= 9.86D-01 WtEn= 1.44D-02
 Coeff-Com:  0.298D-02-0.128D-01 0.116D-02 0.414D-01 0.161D+00 0.498D+00
 Coeff-Com:  0.308D+00
 Coeff-En:   0.000D+00 0.000D+00 0.000D+00 0.000D+00 0.000D+00 0.552D+00
 Coeff-En:   0.448D+00
 Coeff:      0.294D-02-0.126D-01 0.114D-02 0.408D-01 0.159D+00 0.499D+00
 Coeff:      0.310D+00
 Gap=     0.120 Goal=   None    Shift=    0.000
 RMSDP=1.29D-04 MaxDP=5.28D-03 DE= 7.55D-04 OVMax= 1.94D-02

 Cycle   8  Pass 1  IDiag  1:
 RMSU=  4.47D-05    CP:  1.00D+00  7.73D-01  2.67D-01  5.90D-01  7.05D-01
                    CP:  5.82D-01  3.43D-01
 E= -7517.81005152323     Delta-E=       -0.002909194416 Rises=F Damp=F
 DIIS: error= 1.92D-04 at cycle   8 NSaved=   8.
 NSaved= 8 IEnMin= 8 EnMin= -7517.81005152323     IErMin= 8 ErrMin= 1.92D-04
 ErrMax= 1.92D-04  0.00D+00 EMaxC= 1.00D-01 BMatC= 6.71D-05 BMatP= 2.11D-03
 IDIUse=3 WtCom= 9.98D-01 WtEn= 1.92D-03
 Coeff-Com:  0.173D-02-0.623D-02-0.208D-02 0.138D-01 0.650D-01 0.244D+00
 Coeff-Com:  0.191D+00 0.493D+00
 Coeff-En:   0.000D+00 0.000D+00 0.000D+00 0.000D+00 0.000D+00 0.000D+00
 Coeff-En:   0.000D+00 0.100D+01
 Coeff:      0.173D-02-0.622D-02-0.208D-02 0.138D-01 0.648D-01 0.244D+00
 Coeff:      0.190D+00 0.494D+00
 Gap=     0.119 Goal=   None    Shift=    0.000
 RMSDP=3.23D-05 MaxDP=1.70D-03 DE=-2.91D-03 OVMax= 3.77D-03

 Cycle   9  Pass 1  IDiag  1:
 RMSU=  1.92D-05    CP:  1.00D+00  7.74D-01  2.63D-01  5.88D-01  7.10D-01
                    CP:  6.01D-01  4.08D-01  5.02D-01
 E= -7517.81011233386     Delta-E=       -0.000060810631 Rises=F Damp=F
 DIIS: error= 1.33D-04 at cycle   9 NSaved=   9.
 NSaved= 9 IEnMin= 9 EnMin= -7517.81011233386     IErMin= 9 ErrMin= 1.33D-04
 ErrMax= 1.33D-04  0.00D+00 EMaxC= 1.00D-01 BMatC= 2.15D-05 BMatP= 6.71D-05
 IDIUse=3 WtCom= 9.99D-01 WtEn= 1.33D-03
 Coeff-Com:  0.750D-03-0.194D-02-0.226D-02 0.136D-02 0.182D-01 0.102D+00
 Coeff-Com:  0.922D-01 0.364D+00 0.426D+00
 Coeff-En:   0.000D+00 0.000D+00 0.000D+00 0.000D+00 0.000D+00 0.000D+00
 Coeff-En:   0.000D+00 0.265D+00 0.735D+00
 Coeff:      0.749D-03-0.193D-02-0.225D-02 0.135D-02 0.182D-01 0.102D+00
 Coeff:      0.920D-01 0.364D+00 0.426D+00
 Gap=     0.119 Goal=   None    Shift=    0.000
 RMSDP=1.75D-05 MaxDP=1.01D-03 DE=-6.08D-05 OVMax= 1.90D-03

 Cycle  10  Pass 1  IDiag  1:
 RMSU=  9.11D-06    CP:  1.00D+00  7.73D-01  2.63D-01  5.89D-01  7.11D-01
                    CP:  5.92D-01  4.12D-01  6.79D-01  3.70D-01
 E= -7517.81013226286     Delta-E=       -0.000019929001 Rises=F Damp=F
 DIIS: error= 7.34D-05 at cycle  10 NSaved=  10.
 NSaved=10 IEnMin=10 EnMin= -7517.81013226286     IErMin=10 ErrMin= 7.34D-05
 ErrMax= 7.34D-05  0.00D+00 EMaxC= 1.00D-01 BMatC= 5.67D-06 BMatP= 2.15D-05
 IDIUse=1 WtCom= 1.00D+00 WtEn= 0.00D+00
 Coeff-Com:  0.396D-03-0.812D-03-0.158D-02-0.703D-03 0.642D-02 0.547D-01
 Coeff-Com:  0.518D-01 0.228D+00 0.340D+00 0.322D+00
 Coeff:      0.396D-03-0.812D-03-0.158D-02-0.703D-03 0.642D-02 0.547D-01
 Coeff:      0.518D-01 0.228D+00 0.340D+00 0.322D+00
 Gap=     0.119 Goal=   None    Shift=    0.000
 RMSDP=7.17D-06 MaxDP=2.87D-04 DE=-1.99D-05 OVMax= 8.44D-04

 Cycle  11  Pass 1  IDiag  1:
 RMSU=  3.05D-06    CP:  1.00D+00  7.73D-01  2.63D-01  5.90D-01  7.11D-01
                    CP:  5.94D-01  4.12D-01  6.86D-01  5.67D-01  4.38D-01
 E= -7517.81013965492     Delta-E=       -0.000007392056 Rises=F Damp=F
 DIIS: error= 1.13D-05 at cycle  11 NSaved=  11.
 NSaved=11 IEnMin=11 EnMin= -7517.81013965492     IErMin=11 ErrMin= 1.13D-05
 ErrMax= 1.13D-05  0.00D+00 EMaxC= 1.00D-01 BMatC= 2.35D-07 BMatP= 5.67D-06
 IDIUse=1 WtCom= 1.00D+00 WtEn= 0.00D+00
 Coeff-Com:  0.653D-04-0.121D-03-0.228D-03-0.548D-03-0.186D-02 0.273D-02
 Coeff-Com:  0.357D-02 0.273D-01 0.878D-01 0.181D+00 0.701D+00
 Coeff:      0.653D-04-0.121D-03-0.228D-03-0.548D-03-0.186D-02 0.273D-02
 Coeff:      0.357D-02 0.273D-01 0.878D-01 0.181D+00 0.701D+00
 Gap=     0.119 Goal=   None    Shift=    0.000
 RMSDP=1.71D-06 MaxDP=7.76D-05 DE=-7.39D-06 OVMax= 2.16D-04

 Cycle  12  Pass 1  IDiag  1:
 RMSU=  8.37D-07    CP:  1.00D+00  7.73D-01  2.63D-01  5.90D-01  7.11D-01
                    CP:  5.98D-01  4.15D-01  6.90D-01  5.78D-01  5.61D-01
                    CP:  8.63D-01
 E= -7517.81013992724     Delta-E=       -0.000000272319 Rises=F Damp=F
 DIIS: error= 2.91D-06 at cycle  12 NSaved=  12.
 NSaved=12 IEnMin=12 EnMin= -7517.81013992724     IErMin=12 ErrMin= 2.91D-06
 ErrMax= 2.91D-06  0.00D+00 EMaxC= 1.00D-01 BMatC= 1.81D-08 BMatP= 2.35D-07
 IDIUse=1 WtCom= 1.00D+00 WtEn= 0.00D+00
 Coeff-Com: -0.105D-04 0.181D-04 0.877D-04-0.229D-03-0.183D-02-0.509D-02
 Coeff-Com: -0.387D-02-0.149D-01 0.241D-02 0.426D-01 0.324D+00 0.657D+00
 Coeff:     -0.105D-04 0.181D-04 0.877D-04-0.229D-03-0.183D-02-0.509D-02
 Coeff:     -0.387D-02-0.149D-01 0.241D-02 0.426D-01 0.324D+00 0.657D+00
 Gap=     0.119 Goal=   None    Shift=    0.000
 RMSDP=5.42D-07 MaxDP=2.21D-05 DE=-2.72D-07 OVMax= 8.43D-05

 Cycle  13  Pass 1  IDiag  1:
 RMSU=  3.48D-07    CP:  1.00D+00  7.73D-01  2.63D-01  5.90D-01  7.11D-01
                    CP:  5.98D-01  4.16D-01  6.93D-01  5.87D-01  5.70D-01
                    CP:  9.37D-01  8.12D-01
 E= -7517.81013994849     Delta-E=       -0.000000021257 Rises=F Damp=F
 DIIS: error= 1.21D-06 at cycle  13 NSaved=  13.
 NSaved=13 IEnMin=13 EnMin= -7517.81013994849     IErMin=13 ErrMin= 1.21D-06
 ErrMax= 1.21D-06  0.00D+00 EMaxC= 1.00D-01 BMatC= 2.15D-09 BMatP= 1.81D-08
 IDIUse=1 WtCom= 1.00D+00 WtEn= 0.00D+00
 Coeff-Com: -0.823D-05 0.163D-04 0.621D-04-0.905D-04-0.789D-03-0.283D-02
 Coeff-Com: -0.216D-02-0.105D-01-0.636D-02 0.629D-02 0.109D+00 0.355D+00
 Coeff-Com:  0.552D+00
 Coeff:     -0.823D-05 0.163D-04 0.621D-04-0.905D-04-0.789D-03-0.283D-02
 Coeff:     -0.216D-02-0.105D-01-0.636D-02 0.629D-02 0.109D+00 0.355D+00
 Coeff:      0.552D+00
 Gap=     0.119 Goal=   None    Shift=    0.000
 RMSDP=2.08D-07 MaxDP=1.43D-05 DE=-2.13D-08 OVMax= 2.85D-05

 Cycle  14  Pass 1  IDiag  1:
 RMSU=  1.20D-07    CP:  1.00D+00  7.73D-01  2.63D-01  5.90D-01  7.12D-01
                    CP:  5.98D-01  4.17D-01  6.94D-01  5.90D-01  5.72D-01
                    CP:  9.51D-01  8.97D-01  7.53D-01
 E= -7517.81013995111     Delta-E=       -0.000000002618 Rises=F Damp=F
 DIIS: error= 4.98D-07 at cycle  14 NSaved=  14.
 NSaved=14 IEnMin=14 EnMin= -7517.81013995111     IErMin=14 ErrMin= 4.98D-07
 ErrMax= 4.98D-07  0.00D+00 EMaxC= 1.00D-01 BMatC= 2.78D-10 BMatP= 2.15D-09
 IDIUse=1 WtCom= 1.00D+00 WtEn= 0.00D+00
 Coeff-Com: -0.224D-05 0.479D-05 0.179D-04-0.842D-05-0.116D-03-0.730D-03
 Coeff-Com: -0.569D-03-0.325D-02-0.407D-02-0.337D-02 0.292D-02 0.812D-01
 Coeff-Com:  0.300D+00 0.628D+00
 Coeff:     -0.224D-05 0.479D-05 0.179D-04-0.842D-05-0.116D-03-0.730D-03
 Coeff:     -0.569D-03-0.325D-02-0.407D-02-0.337D-02 0.292D-02 0.812D-01
 Coeff:      0.300D+00 0.628D+00
 Gap=     0.119 Goal=   None    Shift=    0.000
 RMSDP=7.36D-08 MaxDP=3.23D-06 DE=-2.62D-09 OVMax= 8.91D-06

 Cycle  15  Pass 1  IDiag  1:
 RMSU=  4.15D-08    CP:  1.00D+00  7.73D-01  2.63D-01  5.90D-01  7.12D-01
                    CP:  5.98D-01  4.17D-01  6.94D-01  5.91D-01  5.75D-01
                    CP:  9.54D-01  9.16D-01  8.53D-01  8.16D-01
 E= -7517.81013995141     Delta-E=       -0.000000000302 Rises=F Damp=F
 DIIS: error= 1.55D-07 at cycle  15 NSaved=  15.
 NSaved=15 IEnMin=15 EnMin= -7517.81013995141     IErMin=15 ErrMin= 1.55D-07
 ErrMax= 1.55D-07  0.00D+00 EMaxC= 1.00D-01 BMatC= 3.83D-11 BMatP= 2.78D-10
 IDIUse=1 WtCom= 1.00D+00 WtEn= 0.00D+00
 Coeff-Com: -0.826D-07 0.436D-06-0.598D-07 0.101D-04 0.563D-04 0.449D-04
 Coeff-Com:  0.359D-05-0.162D-03-0.121D-02-0.261D-02-0.124D-01-0.758D-02
 Coeff-Com:  0.830D-01 0.315D+00 0.626D+00
 Coeff:     -0.826D-07 0.436D-06-0.598D-07 0.101D-04 0.563D-04 0.449D-04
 Coeff:      0.359D-05-0.162D-03-0.121D-02-0.261D-02-0.124D-01-0.758D-02
 Coeff:      0.830D-01 0.315D+00 0.626D+00
 Gap=     0.119 Goal=   None    Shift=    0.000
 RMSDP=2.53D-08 MaxDP=1.21D-06 DE=-3.02D-10 OVMax= 4.71D-06

 Cycle  16  Pass 1  IDiag  1:
 RMSU=  1.40D-08    CP:  1.00D+00  7.73D-01  2.63D-01  5.90D-01  7.12D-01
                    CP:  5.98D-01  4.17D-01  6.95D-01  5.91D-01  5.76D-01
                    CP:  9.56D-01  9.21D-01  8.69D-01  9.18D-01  8.40D-01
 E= -7517.81013995139     Delta-E=        0.000000000022 Rises=F Damp=F
 DIIS: error= 5.11D-08 at cycle  16 NSaved=  16.
 NSaved=16 IEnMin=15 EnMin= -7517.81013995141     IErMin=16 ErrMin= 5.11D-08
 ErrMax= 5.11D-08  0.00D+00 EMaxC= 1.00D-01 BMatC= 4.68D-12 BMatP= 3.83D-11
 IDIUse=1 WtCom= 1.00D+00 WtEn= 0.00D+00
 Coeff-Com:  0.771D-07-0.662D-07-0.167D-05 0.631D-05 0.423D-04 0.908D-04
 Coeff-Com:  0.591D-04 0.222D-03-0.272D-03-0.119D-02-0.717D-02-0.132D-01
 Coeff-Com:  0.192D-01 0.115D+00 0.335D+00 0.552D+00
 Coeff:      0.771D-07-0.662D-07-0.167D-05 0.631D-05 0.423D-04 0.908D-04
 Coeff:      0.591D-04 0.222D-03-0.272D-03-0.119D-02-0.717D-02-0.132D-01
 Coeff:      0.192D-01 0.115D+00 0.335D+00 0.552D+00
 Gap=     0.119 Goal=   None    Shift=    0.000
 RMSDP=8.20D-09 MaxDP=4.08D-07 DE= 2.18D-11 OVMax= 1.00D-06

 SCF Done:  E(RPBE1PBE) =  -7517.81013995     A.U. after   16 cycles
            NFock= 16  Conv=0.82D-08     -V/T= 2.1285
 KE= 6.661984593910D+03 PE=-2.463672966372D+04 EE= 6.934299898934D+03
 Leave Link  502 at Tue Mar  6 14:31:00 2018, MaxMem=   536870912 cpu:      2967.5
 (Enter /share/apps//mg09/l601.exe)
 Copying SCF densities to generalized density rwf, IOpCl= 0 IROHF=0.

 **********************************************************************

            Population analysis using the SCF density.

 **********************************************************************

 Orbital symmetries:
       Occupied  (A) (A) (A) (A) (A) (A) (A) (A) (A) (A) (A) (A)
                 (A) (A) (A) (A) (A) (A) (A) (A) (A) (A) (A) (A)
                 (A) (A) (A) (A) (A) (A) (A) (A) (A) (A) (A) (A)
                 (A) (A) (A) (A) (A) (A) (A) (A) (A) (A) (A) (A)
                 (A) (A) (A) (A) (A) (A) (A) (A) (A) (A) (A) (A)
                 (A) (A) (A) (A) (A) (A) (A) (A) (A) (A) (A) (A)
                 (A) (A) (A) (A) (A) (A) (A) (A) (A) (A) (A) (A)
                 (A) (A) (A) (A) (A) (A) (A) (A) (A) (A) (A) (A)
                 (A) (A) (A) (A) (A) (A) (A) (A) (A) (A) (A) (A)
                 (A) (A) (A) (A) (A) (A) (A) (A)
       Virtual   (A) (A) (A) (A) (A) (A) (A) (A) (A) (A) (A) (A)
                 (A) (A) (A) (A) (A) (A) (A) (A) (A) (A) (A) (A)
                 (A) (A) (A) (A) (A) (A) (A) (A) (A) (A) (A) (A)
                 (A) (A) (A) (A) (A) (A) (A) (A) (A) (A) (A) (A)
                 (A) (A) (A) (A) (A) (A) (A) (A) (A) (A) (A) (A)
                 (A) (A) (A) (A) (A) (A) (A) (A) (A) (A) (A) (A)
                 (A) (A) (A) (A) (A) (A) (A) (A) (A) (A) (A) (A)
                 (A) (A) (A) (A) (A) (A) (A) (A) (A) (A) (A) (A)
                 (A) (A) (A) (A) (A) (A) (A) (A) (A) (A) (A) (A)
                 (A) (A) (A) (A) (A) (A) (A) (A) (A) (A) (A) (A)
                 (A) (A) (A) (A) (A) (A) (A) (A) (A) (A) (A) (A)
                 (A) (A) (A) (A) (A) (A) (A) (A) (A) (A) (A) (A)
                 (A) (A) (A) (A) (A) (A) (A) (A) (A) (A) (A) (A)
                 (A) (A) (A) (A) (A) (A) (A) (A) (A) (A) (A) (A)
                 (A) (A) (A) (A) (A) (A) (A) (A) (A) (A) (A) (A)
                 (A) (A) (A) (A) (A) (A) (A) (A) (A) (A) (A) (A)
                 (A) (A) (A) (A) (A) (A) (A) (A) (A) (A) (A) (A)
                 (A) (A) (A) (A) (A) (A) (A) (A) (A) (A) (A) (A)
                 (A) (A) (A) (A) (A) (A) (A) (A) (A) (A) (A) (A)
                 (A) (A) (A) (A) (A) (A) (A) (A) (A) (A) (A) (A)
                 (A) (A) (A) (A) (A) (A) (A) (A) (A) (A) (A) (A)
                 (A) (A) (A) (A) (A) (A) (A) (A) (A) (A) (A) (A)
                 (A) (A) (A) (A) (A) (A) (A) (A) (A) (A) (A) (A)
                 (A) (A) (A) (A) (A) (A) (A) (A) (A) (A) (A) (A)
                 (A) (A) (A) (A) (A) (A) (A) (A) (A) (A) (A) (A)
                 (A) (A) (A) (A) (A) (A) (A) (A) (A) (A) (A) (A)
                 (A) (A) (A) (A) (A) (A) (A) (A) (A) (A) (A) (A)
                 (A) (A) (A) (A)
 The electronic state is 1-A.
 Alpha  occ. eigenvalues -- -399.09336-399.09158-399.08940 -49.90947 -49.90748
 Alpha  occ. eigenvalues --  -49.90518 -44.39024 -44.39016 -44.38954 -44.38838
 Alpha  occ. eigenvalues --  -44.38818 -44.38748 -44.38593 -44.38585 -44.38541
 Alpha  occ. eigenvalues --   -6.27454  -6.27250  -6.27018  -6.02633  -6.02051
 Alpha  occ. eigenvalues --   -6.02013  -6.01206  -5.13953  -5.13551  -4.42898
 Alpha  occ. eigenvalues --   -4.42872  -4.42724  -4.42665  -4.42657  -4.42449
 Alpha  occ. eigenvalues --   -4.42419  -4.42410  -4.42260  -3.74910  -3.74757
 Alpha  occ. eigenvalues --   -3.74658  -3.74339  -3.74281  -3.74197  -3.74194
 Alpha  occ. eigenvalues --   -3.74049  -3.73970  -3.73533  -3.73268  -3.73216
 Alpha  occ. eigenvalues --   -3.47228  -3.47082  -3.46892  -3.46780  -3.46657
 Alpha  occ. eigenvalues --   -3.46564  -1.22403  -1.22384  -1.22223  -1.22217
 Alpha  occ. eigenvalues --   -1.22205  -1.22184  -1.22127  -1.22018  -1.21997
 Alpha  occ. eigenvalues --   -1.21933  -1.21926  -1.21899  -1.21749  -1.21724
 Alpha  occ. eigenvalues --   -1.21663  -1.08925  -1.08573  -1.08506  -1.08414
 Alpha  occ. eigenvalues --   -1.08303  -1.08117  -1.07940  -1.07876  -1.07853
 Alpha  occ. eigenvalues --   -1.07780  -1.07746  -1.07733  -1.07650  -1.07609
 Alpha  occ. eigenvalues --   -1.07489  -1.07113  -1.07002  -1.06866  -1.06821
 Alpha  occ. eigenvalues --   -1.06739  -1.03410  -1.03386  -1.03224  -1.03134
 Alpha  occ. eigenvalues --   -1.03090  -1.02944  -1.02928  -1.02842  -1.02743
 Alpha  occ. eigenvalues --   -1.02705  -0.66968  -0.62101  -0.60359  -0.55805
 Alpha  occ. eigenvalues --   -0.51082  -0.47243  -0.43598  -0.42068  -0.40842
 Alpha  occ. eigenvalues --   -0.29085  -0.27897  -0.26664  -0.25877  -0.25034
 Alpha  occ. eigenvalues --   -0.24105  -0.23264  -0.22961  -0.22033  -0.20706
 Alpha  occ. eigenvalues --   -0.19747
 Alpha virt. eigenvalues --   -0.07837  -0.07500  -0.07109  -0.06825  -0.05989
 Alpha virt. eigenvalues --   -0.05655  -0.05177  -0.04528  -0.04342  -0.04147
 Alpha virt. eigenvalues --   -0.03230  -0.02530  -0.00566   0.04014   0.04957
 Alpha virt. eigenvalues --    0.05277   0.06275   0.08221   0.08625   0.08804
 Alpha virt. eigenvalues --    0.09041   0.09382   0.09632   0.09776   0.10141
 Alpha virt. eigenvalues --    0.11014   0.11539   0.11820   0.12314   0.12596
 Alpha virt. eigenvalues --    0.13924   0.15877   0.16120   0.16655   0.17051
 Alpha virt. eigenvalues --    0.17146   0.19265   0.19618   0.19794   0.20466
 Alpha virt. eigenvalues --    0.20860   0.21481   0.21957   0.23067   0.24220
 Alpha virt. eigenvalues --    0.25265   0.25388   0.27869   0.28192   0.29222
 Alpha virt. eigenvalues --    0.29867   0.30240   0.30422   0.30738   0.31137
 Alpha virt. eigenvalues --    0.31343   0.31573   0.32239   0.32962   0.33587
 Alpha virt. eigenvalues --    0.34022   0.35224   0.36592   0.36831   0.37309
 Alpha virt. eigenvalues --    0.37642   0.38755   0.40256   0.41372   0.41875
 Alpha virt. eigenvalues --    0.42688   0.42783   0.43359   0.44586   0.45296
 Alpha virt. eigenvalues --    0.45913   0.46305   0.46925   0.46982   0.48064
 Alpha virt. eigenvalues --    0.49346   0.49461   0.49734   0.50774   0.51216
 Alpha virt. eigenvalues --    0.51895   0.53174   0.53359   0.54603   0.54733
 Alpha virt. eigenvalues --    0.56137   0.57111   0.57860   0.58481   0.59505
 Alpha virt. eigenvalues --    0.59888   0.60694   0.61382   0.61906   0.62231
 Alpha virt. eigenvalues --    0.63872   0.64097   0.65242   0.65429   0.66550
 Alpha virt. eigenvalues --    0.66766   0.67126   0.67975   0.68276   0.68904
 Alpha virt. eigenvalues --    0.70668   0.71254   0.71451   0.71768   0.73411
 Alpha virt. eigenvalues --    0.74658   0.74863   0.77088   0.77528   0.78066
 Alpha virt. eigenvalues --    0.79181   0.79713   0.80001   0.81135   0.82061
 Alpha virt. eigenvalues --    0.83944   0.84173   0.84935   0.85430   0.86067
 Alpha virt. eigenvalues --    0.86644   0.87505   0.87973   0.88458   0.89134
 Alpha virt. eigenvalues --    0.89390   0.90746   0.92609   0.93314   0.93979
 Alpha virt. eigenvalues --    0.94408   0.94920   0.95793   0.96355   0.96773
 Alpha virt. eigenvalues --    0.97879   0.98523   0.98757   0.99249   1.00670
 Alpha virt. eigenvalues --    1.01276   1.02369   1.05701   1.07328   1.08231
 Alpha virt. eigenvalues --    1.08570   1.10459   1.10830   1.11935   1.12570
 Alpha virt. eigenvalues --    1.13408   1.14275   1.15378   1.16898   1.17051
 Alpha virt. eigenvalues --    1.17934   1.18730   1.19116   1.19946   1.20485
 Alpha virt. eigenvalues --    1.20789   1.21216   1.21846   1.22183   1.22803
 Alpha virt. eigenvalues --    1.23079   1.23260   1.23771   1.23891   1.24297
 Alpha virt. eigenvalues --    1.24518   1.25336   1.25668   1.26661   1.27068
 Alpha virt. eigenvalues --    1.27350   1.28173   1.28472   1.28585   1.30143
 Alpha virt. eigenvalues --    1.30547   1.31377   1.31709   1.31854   1.33091
 Alpha virt. eigenvalues --    1.33986   1.35320   1.37535   1.38873   1.40221
 Alpha virt. eigenvalues --    1.41279   1.41911   1.41944   1.43261   1.43600
 Alpha virt. eigenvalues --    1.44354   1.45783   1.46266   1.46606   1.47550
 Alpha virt. eigenvalues --    1.49263   1.49837   1.50440   1.51205   1.51463
 Alpha virt. eigenvalues --    1.53078   1.54751   1.55582   1.57572   1.58343
 Alpha virt. eigenvalues --    1.64600   1.68213   1.73303   2.04034   2.07109
 Alpha virt. eigenvalues --    2.09529   2.11232   2.14082   2.14701   2.16194
 Alpha virt. eigenvalues --    2.16859   2.18544   2.19627   2.20275   2.20742
 Alpha virt. eigenvalues --    2.21852   2.23484   2.24187   2.24539   2.24678
 Alpha virt. eigenvalues --    2.27132   2.27820   2.29758   2.30077   2.31796
 Alpha virt. eigenvalues --    2.33378   2.34560   2.35860   2.38550   2.39336
 Alpha virt. eigenvalues --    2.39793   2.40522   2.42535   2.46395   2.47875
 Alpha virt. eigenvalues --    2.48500   2.50673   2.52655   2.53027   2.55005
 Alpha virt. eigenvalues --    2.58322   2.59449   2.61140   2.63577   2.66131
 Alpha virt. eigenvalues --    2.67177   2.68964   2.70618   2.73385   2.75843
 Alpha virt. eigenvalues --    2.76465   2.77258   2.79175   2.79451   2.81994
 Alpha virt. eigenvalues --    2.83138   2.84624   2.87702   2.88349   2.94903
 Alpha virt. eigenvalues --    3.18202   3.27698   3.32558   3.33932   3.39079
 Alpha virt. eigenvalues --    3.44576   3.94740   3.97038   3.99268   4.01809
 Alpha virt. eigenvalues --    4.02053   4.03218   4.04415   4.06341   4.11104
 Alpha virt. eigenvalues --    5.22974   5.34440   5.38241  35.38041  35.39338
 Alpha virt. eigenvalues --   35.41893  35.44586  35.46167  35.46682  35.50824
 Alpha virt. eigenvalues --   35.51462  35.54121  35.56817  35.59191  35.63777
 Alpha virt. eigenvalues --   35.86739  35.91463  36.01845  36.10206  36.18839
 Alpha virt. eigenvalues --   36.22972  36.91145  36.98631  37.01728  37.02423
 Alpha virt. eigenvalues --   37.07966  37.22743 113.56625 113.59804 120.21783
 Alpha virt. eigenvalues --  120.23025 120.25071 120.25832
          Condensed to atoms (all electrons):
               1          2          3          4          5          6
     1  Bi  22.248909  -0.027090   0.125903  -0.025423   0.100278   0.170608
     2  Bi  -0.027090  22.353813  -0.017145   0.115109   0.184622  -0.012639
     3  Sn   0.125903  -0.017145  21.355024   0.061919  -0.022659   0.109015
     4  Sn  -0.025423   0.115109   0.061919  21.379010   0.084105  -0.013957
     5  Bi   0.100278   0.184622  -0.022659   0.084105  22.282204  -0.027782
     6  Ge   0.170608  -0.012639   0.109015  -0.013957  -0.027782  31.545565
     7  Bi  -0.022683   0.183865   0.158517   0.150216  -0.024228   0.177225
     8  Ge   0.135542   0.174574  -0.017207  -0.014885   0.121197   0.185469
     9  Ge   0.137176  -0.016484   0.154187   0.184392   0.170820  -0.012065
               7          8          9
     1  Bi  -0.022683   0.135542   0.137176
     2  Bi   0.183865   0.174574  -0.016484
     3  Sn   0.158517  -0.017207   0.154187
     4  Sn   0.150216  -0.014885   0.184392
     5  Bi  -0.024228   0.121197   0.170820
     6  Ge   0.177225   0.185469  -0.012065
     7  Bi  22.399458  -0.016972  -0.013174
     8  Ge  -0.016972  31.605677  -0.011985
     9  Ge  -0.013174  -0.011985  31.653619
 Mulliken charges:
               1
     1  Bi   0.156781
     2  Bi   0.061374
     3  Sn   0.092445
     4  Sn   0.079515
     5  Bi   0.131443
     6  Ge  -0.121438
     7  Bi   0.007777
     8  Ge  -0.161410
     9  Ge  -0.246486
 Sum of Mulliken charges =   0.00000
 Mulliken charges with hydrogens summed into heavy atoms:
               1
     1  Bi   0.156781
     2  Bi   0.061374
     3  Sn   0.092445
     4  Sn   0.079515
     5  Bi   0.131443
     6  Ge  -0.121438
     7  Bi   0.007777
     8  Ge  -0.161410
     9  Ge  -0.246486
 Electronic spatial extent (au):  <R**2>=           6013.7946
 Charge=              0.0000 electrons
 Dipole moment (field-independent basis, Debye):
    X=             -0.4595    Y=             -0.7812    Z=              0.6448  Tot=              1.1123
 Quadrupole moment (field-independent basis, Debye-Ang):
   XX=           -214.3824   YY=           -216.7855   ZZ=           -223.5445
   XY=              0.3317   XZ=              0.1093   YZ=              0.7810
 Traceless Quadrupole moment (field-independent basis, Debye-Ang):
   XX=              3.8551   YY=              1.4520   ZZ=             -5.3070
   XY=              0.3317   XZ=              0.1093   YZ=              0.7810
 Octapole moment (field-independent basis, Debye-Ang**2):
  XXX=            -24.4664  YYY=            -75.4670  ZZZ=            -17.0931  XYY=             -8.4411
  XXY=            -18.9587  XXZ=            -18.2501  XZZ=            -16.6658  YZZ=            -22.2459
  YYZ=             -0.6587  XYZ=             -6.9102
 Hexadecapole moment (field-independent basis, Debye-Ang**3):
 XXXX=          -3378.5017 YYYY=          -3295.0711 ZZZZ=          -2902.4068 XXXY=             -6.4296
 XXXZ=              0.5261 YYYX=            -28.7066 YYYZ=            -12.9610 ZZZX=             -0.7099
 ZZZY=            -17.6944 XXYY=          -1092.8034 XXZZ=          -1067.9412 YYZZ=          -1047.4409
 XXYZ=            -13.4709 YYXZ=             23.9975 ZZXY=             -1.6517
 N-N= 3.522635030927D+03 E-N=-2.463672966913D+04  KE= 6.661984593910D+03
 No NMR shielding tensors so no spin-rotation constants.
 Leave Link  601 at Tue Mar  6 14:31:01 2018, MaxMem=   536870912 cpu:         1.1
 (Enter /share/apps//mg09/l701.exe)
 Compute integral first derivatives.
 ... and contract with generalized density number  0.
   1 Symmetry operations used in ECPInt.
 ECPInt:  NShTT=   10440 NPrTT=   41973 LenC2=    9666 LenP2D=   27469.
 LDataN:  DoStor=T MaxTD1= 9 Len=  602
 Leave Link  701 at Tue Mar  6 14:31:19 2018, MaxMem=   536870912 cpu:        70.9
 (Enter /share/apps//mg09/l702.exe)
 L702 exits ... SP integral derivatives will be done elsewhere.
 Leave Link  702 at Tue Mar  6 14:31:19 2018, MaxMem=   536870912 cpu:         0.1
 (Enter /share/apps//mg09/l703.exe)
 Compute integral first derivatives, UseDBF=F ICtDFT=           0.
 Integral derivatives from FoFJK, PRISM(SPDF).
 Calling FoFJK, ICntrl=      2127 FMM=F ISym2X=0 I1Cent= 0 IOpClX= 0 NMat=1 NMatS=1 NMatT=0.
 FoFJK:  IHMeth= 1 ICntrl=    2127 DoSepK=F KAlg= 0 I1Cent=   0 FoldK=F
 IRaf=         0 NMat=   1 IRICut=       1 DoRegI=T DoRafI=F ISym2E= 0.
 FoFCou: FMM=F IPFlag=           0 FMFlag=      100000 FMFlg1=         800
         NFxFlg=           0 DoJE=F BraDBF=F KetDBF=F FulRan=T
         wScrn=  0.000000 ICntrl=    2127 IOpCl=  0 I1Cent=           0 NGrid=           0
         NMat0=    1 NMatS0=      1 NMatT0=    0 NMatD0=    1 NMtDS0=    0 NMtDT0=    0
 Symmetry not used in FoFCou.
 Defaulting to unpruned grid for atomic number  83.
 Defaulting to unpruned grid for atomic number  83.
 Defaulting to unpruned grid for atomic number  83.
 Defaulting to unpruned grid for atomic number  83.
 Leave Link  703 at Tue Mar  6 14:34:12 2018, MaxMem=   536870912 cpu:       692.9
 (Enter /share/apps//mg09/l716.exe)
 Dipole        =-1.80788813D-01-3.07348176D-01 2.53703381D-01
 ***** Axes restored to original set *****
 -------------------------------------------------------------------
 Center     Atomic                   Forces (Hartrees/Bohr)
 Number     Number              X              Y              Z
 -------------------------------------------------------------------
      1       83           0.010891447    0.001358735    0.002047218
      2       83          -0.005954750   -0.005749692    0.000748725
      3       50          -0.000246485    0.013426433   -0.003696969
      4       50          -0.008439370   -0.004119551   -0.009012571
      5       83           0.003143738   -0.008665950   -0.001115105
      6       32          -0.003129826    0.008743078    0.010599579
      7       83          -0.008188394    0.002597475    0.000265688
      8       32           0.002823809   -0.007915196    0.010276631
      9       32           0.009099830    0.000324669   -0.010113196
 -------------------------------------------------------------------
 Cartesian Forces:  Max     0.013426433 RMS     0.006877931
 Force constants in Cartesian coordinates: 
                1             2             3             4             5 
      1  0.234885D+00
      2  0.188958D-01  0.147850D+00
      3  0.706950D-02  0.331972D-02  0.184520D+00
      4 -0.364164D-02 -0.162582D-03 -0.156596D-02  0.156435D+00
      5 -0.942605D-02  0.133454D-02 -0.971888D-03  0.257533D-01  0.136740D+00
      6  0.120781D-02  0.991431D-03  0.618211D-02 -0.656845D-03 -0.172250D-01
      7 -0.414375D-01  0.252651D-01 -0.187733D-01  0.341323D-02 -0.217526D-03
      8 -0.950790D-02 -0.367132D-01  0.429900D-02 -0.752271D-02 -0.311961D-02
      9 -0.567828D-02  0.190509D-01 -0.250867D-01  0.274799D-02  0.506397D-02
     10 -0.302986D-02 -0.258164D-02 -0.344552D-02 -0.238105D-01 -0.116648D-01
     11 -0.341912D-02  0.650263D-02 -0.140538D-02 -0.254223D-02 -0.203942D-01
     12 -0.113414D-01 -0.316753D-02 -0.364679D-03 -0.132970D-01 -0.515867D-03
     13 -0.311689D-01 -0.227296D-01 -0.104807D-01 -0.555835D-01  0.245013D-01
     14  0.110649D-01 -0.420989D-01 -0.709046D-02 -0.110584D-01 -0.303873D-01
     15  0.114392D-02 -0.144708D-01 -0.187075D-01  0.155072D-01 -0.604516D-02
     16 -0.699104D-01  0.248098D-01  0.342302D-01  0.251709D-02 -0.643439D-02
     17  0.106642D-02 -0.235896D-01 -0.102312D-01 -0.525389D-02 -0.405660D-02
     18  0.229304D-02 -0.124339D-01 -0.420198D-01  0.148461D-02 -0.471752D-02
     19 -0.647612D-02 -0.353133D-02 -0.257717D-02 -0.289199D-01 -0.969107D-02
     20  0.551918D-02  0.399529D-02  0.476683D-03  0.221645D-01 -0.556515D-01
     21  0.112979D-03 -0.693160D-03  0.668620D-02 -0.337766D-02  0.120903D-01
     22 -0.438499D-01 -0.325800D-01  0.258126D-01 -0.517524D-01 -0.610840D-02
     23 -0.110345D-01 -0.372099D-01  0.237550D-01 -0.182728D-01 -0.276630D-01
     24 -0.578848D-02  0.999649D-02 -0.414408D-01 -0.804537D-02  0.872987D-02
     25 -0.353708D-01 -0.738553D-02 -0.302696D-01  0.134282D-02 -0.671245D-02
     26 -0.315866D-02 -0.200708D-01 -0.121515D-01 -0.310519D-02  0.319739D-02
     27  0.109810D-01 -0.259312D-02 -0.697693D-01  0.720300D-02  0.359122D-02
                6             7             8             9            10 
      6  0.115152D+00
      7 -0.144671D-02  0.133505D+00
      8  0.119882D-02 -0.153832D-02  0.199488D+00
      9  0.324368D-02 -0.114858D-01 -0.302559D-01  0.135958D+00
     10  0.137145D-01 -0.142310D-01  0.165375D-02 -0.107296D-01  0.149897D+00
     11  0.242425D-01 -0.155900D-01 -0.315344D-01 -0.164522D-01  0.790922D-02
     12 -0.466421D-01 -0.453292D-02  0.132805D-01 -0.233833D-01  0.268368D-01
     13  0.181147D-01  0.570594D-02  0.592851D-02 -0.191992D-03 -0.275137D-01
     14  0.788661D-02  0.897012D-03 -0.913102D-02  0.451912D-02  0.193330D-02
     15 -0.231678D-01  0.140289D-02 -0.136866D-02  0.680474D-02 -0.186585D-01
     16  0.846519D-03 -0.141931D-01  0.390346D-02  0.481370D-02  0.510701D-02
     17 -0.496346D-02 -0.195604D-03 -0.317861D-01  0.268746D-01 -0.268170D-02
     18  0.825464D-03  0.577335D-02 -0.117593D-01 -0.448327D-01 -0.428880D-02
     19  0.357756D-02 -0.489430D-01  0.604324D-02  0.793570D-02 -0.318150D-01
     20 -0.109469D-02 -0.302891D-01 -0.379252D-01  0.124458D-01  0.138702D-01
     21 -0.161425D-01  0.210868D-01  0.375715D-02 -0.224593D-01  0.232389D-01
     22 -0.391156D-01  0.592295D-02  0.210015D-02 -0.312738D-02  0.465094D-02
     23 -0.954073D-02 -0.246623D-02 -0.124041D-02  0.185171D-02  0.227759D-02
     24 -0.410387D-01  0.163503D-04  0.955202D-02  0.103555D-02 -0.435268D-02
     25  0.375805D-02 -0.297423D-01 -0.106018D-02  0.157157D-01 -0.592545D-01
     26 -0.149551D-02  0.241347D-01 -0.480382D-01 -0.230979D-01 -0.107159D-01
     27  0.158819D-02  0.795940D-02  0.112963D-01 -0.312805D-01 -0.223151D-01
               11            12            13            14            15 
     11  0.112004D+00
     12  0.134656D-01  0.186945D+00
     13  0.221291D-01 -0.317668D-02  0.150533D+00
     14 -0.271359D-01 -0.129607D-01 -0.283476D-01  0.209706D+00
     15  0.132050D-01 -0.275583D-01 -0.234270D-01  0.498468D-02  0.159247D+00
     16  0.100273D-02 -0.610891D-03  0.377950D-02  0.255742D-03 -0.178253D-02
     17  0.266174D-02 -0.734200D-02  0.598904D-02 -0.149864D-02 -0.283563D-02
     18  0.560350D-03 -0.404612D-02  0.417794D-02 -0.846323D-02  0.214780D-02
     19 -0.114854D-02 -0.103959D-01 -0.116490D-02  0.936610D-02  0.267347D-02
     20 -0.246260D-01 -0.107047D-01  0.126441D-02 -0.171520D-03 -0.296219D-02
     21 -0.235821D-01 -0.463706D-01 -0.113548D-02 -0.115056D-02  0.469518D-02
     22 -0.112903D-02 -0.372359D-02 -0.182064D-01  0.628712D-02  0.174825D-01
     23  0.402225D-02  0.522579D-02  0.731392D-02 -0.348856D-01 -0.290650D-01
     24 -0.314359D-02 -0.414565D-02 -0.179347D-03  0.740124D-02 -0.604190D-01
     25 -0.721207D-02  0.202416D-01 -0.263812D-01  0.960188D-02  0.565797D-02
     26 -0.215006D-01  0.271896D-02 -0.160490D-01 -0.643973D-01  0.385577D-01
     27 -0.689022D-02 -0.344343D-01  0.162985D-01  0.487334D-02 -0.430421D-01
               16            17            18            19            20 
     16  0.140496D+00
     17 -0.190150D-01  0.133116D+00
     18 -0.377273D-02  0.296014D-01  0.167319D+00
     19 -0.508669D-01  0.599140D-02 -0.502427D-02  0.173145D+00
     20 -0.840562D-02 -0.239566D-01 -0.119890D-01 -0.148287D-01  0.127676D+00
     21 -0.386159D-01 -0.646269D-02 -0.424722D-01 -0.210797D-02  0.929563D-02
     22 -0.219532D-01  0.129955D-01 -0.792974D-02 -0.224543D-02  0.605063D-02
     23  0.648584D-02 -0.551651D-01  0.201108D-01  0.571415D-02  0.393511D-02
     24  0.231675D-02 -0.183255D-01 -0.341266D-01 -0.178317D-02  0.510527D-02
     25  0.502377D-02  0.110385D-02  0.728661D-02 -0.271418D-02  0.465450D-02
     26 -0.260258D-02  0.427498D-02 -0.909667D-03  0.208474D-02  0.672470D-02
     27  0.257488D-02 -0.631561D-02 -0.279494D-02  0.770176D-02 -0.572724D-03
               21            22            23            24            25 
     21  0.114655D+00
     22 -0.140112D-02  0.123455D+00
     23  0.457289D-02  0.997997D-02  0.140991D+00
     24 -0.392419D-03  0.121757D-01 -0.225811D-01  0.184364D+00
     25  0.219953D-02  0.397860D-02  0.215497D-05  0.564029D-02  0.143118D+00
     26  0.217247D-02  0.240410D-02  0.721551D-02  0.326529D-02  0.700785D-02
     27  0.180091D-02 -0.173201D-03  0.567058D-02 -0.383583D-02 -0.302301D-01
               26            27 
     26  0.132594D+00
     27 -0.905981D-02  0.181768D+00
 Leave Link  716 at Tue Mar  6 14:34:12 2018, MaxMem=   536870912 cpu:         0.1
 (Enter /share/apps//mg09/l103.exe)

 GradGradGradGradGradGradGradGradGradGradGradGradGradGradGradGradGradGrad
 Berny optimization.
 Search for a local minimum.
 Step number   1 out of a maximum of  100
 All quantities printed in internal units (Hartrees-Bohrs-Radians)
 Second derivative matrix not updated -- first step.
 ITU=  0
     Eigenvalues ---    0.08615   0.12031   0.12141   0.12538   0.13299
     Eigenvalues ---    0.14214   0.14911   0.15020   0.15838   0.16167
     Eigenvalues ---    0.17165   0.21961   0.22834   0.23966   0.24294
     Eigenvalues ---    0.24867   0.27210   0.27956   0.29077   0.29945
     Eigenvalues ---    0.32105
 RFO step:  Lambda=-7.76985263D-03 EMin= 8.61471896D-02
 Linear search not attempted -- first point.
 TrRot=  0.001357 -0.000041  0.001382  0.000013  0.000050  0.000013
 MatCor failed.
 Variable       Old X    -DE/DX   Delta X   Delta X   Delta X     New X
                                 (Linear)    (Quad)   (Total)
    X1       -4.38008   0.01089   0.00000   0.05155   0.05288  -4.32720
    Y1       -1.46712   0.00136   0.00000   0.01367   0.01351  -1.45360
    Z1       -1.29616   0.00205   0.00000   0.01853   0.02012  -1.27604
    X2        3.05263  -0.00595   0.00000  -0.03813  -0.03691   3.01572
    Y2        3.23764  -0.00575   0.00000  -0.04709  -0.04705   3.19059
    Z2       -1.13675   0.00075   0.00000   0.00787   0.00911  -1.12764
    X3       -0.47802  -0.00025   0.00000  -0.00134   0.00022  -0.47780
    Y3       -4.79622   0.01343   0.00000   0.07986   0.07980  -4.71642
    Z3        1.61895  -0.00370   0.00000  -0.02576  -0.02435   1.59460
    X4        2.11856  -0.00844   0.00000  -0.04914  -0.04760   2.07096
    Y4        0.57506  -0.00412   0.00000  -0.02446  -0.02444   0.55061
    Z4        4.17141  -0.00901   0.00000  -0.06027  -0.05899   4.11242
    X5       -2.23297   0.00314   0.00000   0.02034   0.02165  -2.21133
    Y5        3.75618  -0.00867   0.00000  -0.05418  -0.05428   3.70190
    Z5        0.97175  -0.00112   0.00000  -0.01370  -0.01221   0.95954
    X6        0.06827  -0.00313   0.00000  -0.01065  -0.00941   0.05887
    Y6       -3.10140   0.00874   0.00000   0.05631   0.05627  -3.04513
    Z6       -3.92801   0.01060   0.00000   0.06297   0.06435  -3.86366
    X7        4.25832  -0.00819   0.00000  -0.05770  -0.05630   4.20201
    Y7       -2.30432   0.00260   0.00000   0.02822   0.02829  -2.27603
    Z7       -0.41618   0.00027   0.00000   0.00145   0.00262  -0.41356
    X8       -1.22346   0.00282   0.00000   0.01986   0.02095  -1.20250
    Y8        1.97435  -0.00792   0.00000  -0.04957  -0.04965   1.92470
    Z8       -4.32904   0.01028   0.00000   0.05726   0.05870  -4.27034
    X9       -3.21833   0.00910   0.00000   0.05295   0.05452  -3.16381
    Y9       -0.63545   0.00032   0.00000  -0.00233  -0.00246  -0.63790
    Z9        4.07897  -0.01011   0.00000  -0.06089  -0.05935   4.01962
         Item               Value     Threshold  Converged?
 Maximum Force            0.013426     0.000450     NO 
 RMS     Force            0.006878     0.000300     NO 
 Maximum Displacement     0.079804     0.001800     NO 
 RMS     Displacement     0.042223     0.001200     NO 
 Predicted change in Energy=-4.072083D-03
 Lowest energy point so far.  Saving SCF results.
 GradGradGradGradGradGradGradGradGradGradGradGradGradGradGradGradGradGrad

 Leave Link  103 at Tue Mar  6 14:34:12 2018, MaxMem=   536870912 cpu:         0.1
 (Enter /share/apps//mg09/l202.exe)
                          Input orientation:                          
 ---------------------------------------------------------------------
 Center     Atomic      Atomic             Coordinates (Angstroms)
 Number     Number       Type             X           Y           Z
 ---------------------------------------------------------------------
      1         83           0       -2.289854   -0.769215   -0.675251
      2         83           0        1.595848    1.688389   -0.596722
      3         50           0       -0.252841   -2.495820    0.843827
      4         50           0        1.095906    0.291371    2.176199
      5         83           0       -1.170184    1.958961    0.507769
      6         32           0        0.031150   -1.611412   -2.044563
      7         83           0        2.223610   -1.204425   -0.218846
      8         32           0       -0.636337    1.018509   -2.259768
      9         32           0       -1.674214   -0.337564    2.127090
 ---------------------------------------------------------------------
                    Distance matrix (angstroms):
                    1          2          3          4          5
     1  Bi   0.000000
     2  Bi   4.598332   0.000000
     3  Sn   3.072163   4.795876   0.000000
     4  Sn   4.551810   3.144946   3.370870   0.000000
     5  Bi   3.177442   2.990659   4.560650   3.271036   0.000000
     6  Ge   2.823362   3.928512   3.034078   4.750697   4.550294
     7  Bi   4.557309   2.984166   2.988274   3.040619   4.696043
     8  Ge   2.905300   2.863060   4.704241   4.817385   2.971314
     9  Ge   2.901456   4.713485   2.885330   2.841045   2.854869
                    6          7          8          9
     6  Ge   0.000000
     7  Bi   2.881972   0.000000
     8  Ge   2.721826   4.157655   0.000000
     9  Ge   4.683337   4.631188   4.707510   0.000000
 Stoichiometry    Bi4Ge3Sn2
 Framework group  C1[X(Bi4Ge3Sn2)]
 Deg. of freedom    21
 Full point group                 C1      NOp   1
 RotChk:  IX=0 Diff= 7.36D-03
 Largest Abelian subgroup         C1      NOp   1
 Largest concise Abelian subgroup C1      NOp   1
                         Standard orientation:                         
 ---------------------------------------------------------------------
 Center     Atomic      Atomic             Coordinates (Angstroms)
 Number     Number       Type             X           Y           Z
 ---------------------------------------------------------------------
      1         83           0        2.288039    0.758527   -0.684468
      2         83           0       -1.604831   -1.687007   -0.586584
      3         50           0        0.261514    2.495061    0.837317
      4         50           0       -1.091129   -0.284725    2.181159
      5         83           0        1.164138   -1.963310    0.509094
      6         32           0       -0.035076    1.604443   -2.047897
      7         83           0       -2.222487    1.208627   -0.213688
      8         32           0        0.623664   -1.028023   -2.258908
      9         32           0        1.680707    0.335632    2.121018
 ---------------------------------------------------------------------
 Rotational constants (GHZ):      0.1065678      0.0966210      0.0817830
 Leave Link  202 at Tue Mar  6 14:34:14 2018, MaxMem=   536870912 cpu:         0.0
 (Enter /share/apps//mg09/l301.exe)
 Standard basis: def2TZVP (5D, 7F)
 Ernie: Thresh=  0.10000D-02 Tol=  0.10000D-05 Strict=F.
 There are   519 symmetry adapted cartesian basis functions of A   symmetry.
 There are   444 symmetry adapted basis functions of A   symmetry.
   444 basis functions,   963 primitive gaussians,   519 cartesian basis functions
   116 alpha electrons      116 beta electrons
       nuclear repulsion energy      3576.5247333156 Hartrees.
 IExCor= 1009 DFT=T Ex+Corr=PBE1PBE ExCW=0 ScaHFX=  0.250000
 ScaDFX=  0.750000  0.750000  1.000000  1.000000 ScalE2=  1.000000  1.000000
 IRadAn=      0 IRanWt=     -1 IRanGd=            0 ICorTp=0 IEmpDi=  4
 NAtoms=    9 NActive=    9 NUniq=    9 SFac= 1.00D+00 NAtFMM=   60 NAOKFM=F Big=F
 Integral buffers will be    131072 words long.
 Raffenetti 2 integral format.
 Two-electron integral symmetry is turned on.
 Leave Link  301 at Tue Mar  6 14:34:14 2018, MaxMem=   536870912 cpu:         0.2
 (Enter /share/apps//mg09/l302.exe)
 NPDir=0 NMtPBC=     1 NCelOv=     1 NCel=       1 NClECP=     1 NCelD=      1
         NCelK=      1 NCelE2=     1 NClLst=     1 CellRange=     0.0.
 One-electron integrals computed using PRISM.
   1 Symmetry operations used in ECPInt.
 ECPInt:  NShTT=   10440 NPrTT=   41973 LenC2=    9695 LenP2D=   27662.
 LDataN:  DoStor=T MaxTD1= 8 Len=  415
 NBasis=   444 RedAO= T EigKep=  1.38D-03  NBF=   444
 NBsUse=   444 1.00D-06 EigRej= -1.00D+00 NBFU=   444
 Precomputing XC quadrature grid using
 IXCGrd= 4 IRadAn=           0 IRanWt=          -1 IRanGd=           0 AccXCQ= 0.00D+00.
 Defaulting to unpruned grid for atomic number  83.
 Defaulting to unpruned grid for atomic number  83.
 Defaulting to unpruned grid for atomic number  50.
 Generated NRdTot=       0 NPtTot=           0 NUsed=           0 NTot=          32
 NSgBfM=   501   501   502   502   504 MxSgAt=     9 MxSgA2=     9.
 Leave Link  302 at Tue Mar  6 14:34:21 2018, MaxMem=   536870912 cpu:        26.8
 (Enter /share/apps//mg09/l303.exe)
 DipDrv:  MaxL=1.
 Leave Link  303 at Tue Mar  6 14:34:21 2018, MaxMem=   536870912 cpu:         0.2
 (Enter /share/apps//mg09/l401.exe)
 Initial guess from the checkpoint file:  "Isomer_34.chk"
 B after Tr=     0.000000    0.000000    0.000000
         Rot=    0.999997    0.001221   -0.001681    0.001515 Ang=   0.29 deg.
 Guess basis will be translated and rotated to current coordinates.
 JPrj=2 DoOrth=T DoCkMO=T.
 Generating alternative initial guess.
 ExpMin= 4.62D-02 ExpMax= 4.66D+05 ExpMxC= 4.50D+03 IAcc=2 IRadAn=         4 AccDes= 0.00D+00
 Harris functional with IExCor= 1009 and IRadAn=       4 diagonalized for initial guess.
 HarFok:  IExCor= 1009 AccDes= 0.00D+00 IRadAn=         4 IDoV= 1 UseB2=F ITyADJ=14
 ICtDFT=  3500011 ScaDFX=  1.000000  1.000000  1.000000  1.000000
 Defaulting to unpruned grid for atomic number  83.
 Defaulting to unpruned grid for atomic number  83.
 Defaulting to unpruned grid for atomic number  83.
 Defaulting to unpruned grid for atomic number  83.
 FoFCou: FMM=F IPFlag=           0 FMFlag=      100000 FMFlg1=           0
         NFxFlg=           0 DoJE=T BraDBF=F KetDBF=T FulRan=T
         wScrn=  0.000000 ICntrl=     500 IOpCl=  0 I1Cent=   200000004 NGrid=           0
         NMat0=    1 NMatS0=      1 NMatT0=    0 NMatD0=    1 NMtDS0=    0 NMtDT0=    0
 Petite list used in FoFCou.
 Harris En= -7518.61031462438    
 Leave Link  401 at Tue Mar  6 14:34:24 2018, MaxMem=   536870912 cpu:        12.2
 (Enter /share/apps//mg09/l502.exe)
 Closed shell SCF:
 Using DIIS extrapolation, IDIIS=  1040.
 Integral symmetry usage will be decided dynamically.
 IVT=     1410107 IEndB=     1410107 NGot=   536870912 MDV=   536322046
 LenX=   536322046 LenY=   536052166
 Requested convergence on RMS density matrix=1.00D-08 within 768 cycles.
 Requested convergence on MAX density matrix=1.00D-06.
 Requested convergence on             energy=1.00D-06.
 No special actions if energy rises.
 Fock matrices will be formed incrementally for  20 cycles.

 Cycle   1  Pass 1  IDiag  1:
 FoFJK:  IHMeth= 1 ICntrl=       0 DoSepK=F KAlg= 0 I1Cent=   0 FoldK=F
 IRaf= 880000000 NMat=   1 IRICut=       1 DoRegI=T DoRafI=F ISym2E= 0.
 FoFCou: FMM=F IPFlag=           0 FMFlag=      100000 FMFlg1=           0
         NFxFlg=           0 DoJE=F BraDBF=F KetDBF=F FulRan=T
         wScrn=  0.000000 ICntrl=       0 IOpCl=  0 I1Cent=           0 NGrid=           0
         NMat0=    1 NMatS0=      1 NMatT0=    0 NMatD0=    1 NMtDS0=    0 NMtDT0=    0
 Symmetry not used in FoFCou.
 Defaulting to unpruned grid for atomic number  83.
 Defaulting to unpruned grid for atomic number  83.
 Defaulting to unpruned grid for atomic number  83.
 Defaulting to unpruned grid for atomic number  83.
 E= -7517.81443336804    
 DIIS: error= 5.72D-03 at cycle   1 NSaved=   1.
 NSaved= 1 IEnMin= 1 EnMin= -7517.81443336804     IErMin= 1 ErrMin= 5.72D-03
 ErrMax= 5.72D-03  0.00D+00 EMaxC= 1.00D-01 BMatC= 8.48D-03 BMatP= 8.48D-03
 IDIUse=3 WtCom= 9.43D-01 WtEn= 5.72D-02
 Coeff-Com:  0.100D+01
 Coeff-En:   0.100D+01
 Coeff:      0.100D+01
 Gap=     8.285 Goal=   None    Shift=    0.000
 GapD=    8.285 DampG=2.000 DampE=1.000 DampFc=2.0000 IDamp=-1.
 RMSDP=1.71D-04 MaxDP=3.80D-03              OVMax= 1.88D-02

 Cycle   2  Pass 1  IDiag  1:
 RMSU=  1.70D-04    CP:  1.00D+00
 E= -7517.81453093611     Delta-E=       -0.000097568078 Rises=F Damp=F
 DIIS: error= 1.64D-03 at cycle   2 NSaved=   2.
 NSaved= 2 IEnMin= 2 EnMin= -7517.81453093611     IErMin= 2 ErrMin= 1.64D-03
 ErrMax= 1.64D-03  0.00D+00 EMaxC= 1.00D-01 BMatC= 1.46D-03 BMatP= 8.48D-03
 IDIUse=3 WtCom= 9.84D-01 WtEn= 1.64D-02
 Coeff-Com:  0.185D+00 0.815D+00
 Coeff-En:   0.469D+00 0.531D+00
 Coeff:      0.189D+00 0.811D+00
 Gap=     0.122 Goal=   None    Shift=    0.000
 RMSDP=1.95D-04 MaxDP=7.59D-03 DE=-9.76D-05 OVMax= 1.45D-02

 Cycle   3  Pass 1  IDiag  1:
 RMSU=  1.76D-04    CP:  9.99D-01  5.45D-01
 E= -7517.81304064376     Delta-E=        0.001490292354 Rises=F Damp=F
 DIIS: error= 2.43D-03 at cycle   3 NSaved=   3.
 NSaved= 3 IEnMin= 2 EnMin= -7517.81453093611     IErMin= 2 ErrMin= 1.64D-03
 ErrMax= 2.43D-03  0.00D+00 EMaxC= 1.00D-01 BMatC= 3.34D-03 BMatP= 1.46D-03
 IDIUse=3 WtCom= 1.69D-01 WtEn= 8.31D-01
 Coeff-Com:  0.368D-02 0.602D+00 0.395D+00
 Coeff-En:   0.000D+00 0.655D+00 0.345D+00
 Coeff:      0.621D-03 0.646D+00 0.353D+00
 Gap=     0.123 Goal=   None    Shift=    0.000
 RMSDP=1.04D-04 MaxDP=4.75D-03 DE= 1.49D-03 OVMax= 8.82D-03

 Cycle   4  Pass 1  IDiag  1:
 RMSU=  3.03D-05    CP:  9.99D-01  8.11D-01  5.08D-01
 E= -7517.81555464393     Delta-E=       -0.002514000167 Rises=F Damp=F
 DIIS: error= 4.03D-04 at cycle   4 NSaved=   4.
 NSaved= 4 IEnMin= 4 EnMin= -7517.81555464393     IErMin= 4 ErrMin= 4.03D-04
 ErrMax= 4.03D-04  0.00D+00 EMaxC= 1.00D-01 BMatC= 1.14D-04 BMatP= 1.46D-03
 IDIUse=3 WtCom= 9.96D-01 WtEn= 4.03D-03
 Coeff-Com: -0.298D-03 0.403D+00 0.214D+00 0.383D+00
 Coeff-En:   0.000D+00 0.340D-01 0.000D+00 0.966D+00
 Coeff:     -0.296D-03 0.402D+00 0.213D+00 0.385D+00
 Gap=     0.123 Goal=   None    Shift=    0.000
 RMSDP=3.05D-05 MaxDP=1.24D-03 DE=-2.51D-03 OVMax= 2.83D-03

 Cycle   5  Pass 1  IDiag  1:
 RMSU=  1.41D-05    CP:  9.99D-01  8.59D-01  4.56D-01  2.09D-01
 E= -7517.81563344044     Delta-E=       -0.000078796511 Rises=F Damp=F
 DIIS: error= 1.07D-04 at cycle   5 NSaved=   5.
 NSaved= 5 IEnMin= 5 EnMin= -7517.81563344044     IErMin= 5 ErrMin= 1.07D-04
 ErrMax= 1.07D-04  0.00D+00 EMaxC= 1.00D-01 BMatC= 1.57D-05 BMatP= 1.14D-04
 IDIUse=3 WtCom= 9.99D-01 WtEn= 1.07D-03
 Coeff-Com: -0.853D-03 0.212D+00 0.970D-01 0.315D+00 0.377D+00
 Coeff-En:   0.000D+00 0.000D+00 0.000D+00 0.189D+00 0.811D+00
 Coeff:     -0.852D-03 0.212D+00 0.969D-01 0.315D+00 0.377D+00
 Gap=     0.123 Goal=   None    Shift=    0.000
 RMSDP=1.12D-05 MaxDP=5.31D-04 DE=-7.88D-05 OVMax= 1.22D-03

 Cycle   6  Pass 1  IDiag  1:
 RMSU=  3.52D-06    CP:  9.99D-01  8.68D-01  4.49D-01  4.67D-01  5.16D-01
 E= -7517.81565311224     Delta-E=       -0.000019671801 Rises=F Damp=F
 DIIS: error= 1.50D-05 at cycle   6 NSaved=   6.
 NSaved= 6 IEnMin= 6 EnMin= -7517.81565311224     IErMin= 6 ErrMin= 1.50D-05
 ErrMax= 1.50D-05  0.00D+00 EMaxC= 1.00D-01 BMatC= 3.20D-07 BMatP= 1.57D-05
 IDIUse=1 WtCom= 1.00D+00 WtEn= 0.00D+00
 Coeff-Com: -0.388D-03 0.724D-01 0.321D-01 0.126D+00 0.188D+00 0.582D+00
 Coeff:     -0.388D-03 0.724D-01 0.321D-01 0.126D+00 0.188D+00 0.582D+00
 Gap=     0.123 Goal=   None    Shift=    0.000
 RMSDP=2.76D-06 MaxDP=1.31D-04 DE=-1.97D-05 OVMax= 4.35D-04

 Cycle   7  Pass 1  IDiag  1:
 RMSU=  2.43D-06    CP:  9.99D-01  8.71D-01  4.51D-01  4.69D-01  5.74D-01
                    CP:  7.73D-01
 E= -7517.81565296544     Delta-E=        0.000000146798 Rises=F Damp=F
 DIIS: error= 2.08D-05 at cycle   7 NSaved=   7.
 NSaved= 7 IEnMin= 6 EnMin= -7517.81565311224     IErMin= 6 ErrMin= 1.50D-05
 ErrMax= 2.08D-05  0.00D+00 EMaxC= 1.00D-01 BMatC= 4.23D-07 BMatP= 3.20D-07
 IDIUse=1 WtCom= 1.00D+00 WtEn= 0.00D+00
 Coeff-Com: -0.112D-03 0.469D-02 0.184D-02 0.247D-01 0.656D-01 0.540D+00
 Coeff-Com:  0.363D+00
 Coeff:     -0.112D-03 0.469D-02 0.184D-02 0.247D-01 0.656D-01 0.540D+00
 Coeff:      0.363D+00
 Gap=     0.123 Goal=   None    Shift=    0.000
 RMSDP=1.98D-06 MaxDP=7.34D-05 DE= 1.47D-07 OVMax= 2.68D-04

 Cycle   8  Pass 1  IDiag  1:
 RMSU=  8.94D-07    CP:  9.99D-01  8.72D-01  4.52D-01  4.70D-01  5.90D-01
                    CP:  1.01D+00  3.86D-01
 E= -7517.81565344054     Delta-E=       -0.000000475102 Rises=F Damp=F
 DIIS: error= 6.20D-06 at cycle   8 NSaved=   8.
 NSaved= 8 IEnMin= 8 EnMin= -7517.81565344054     IErMin= 8 ErrMin= 6.20D-06
 ErrMax= 6.20D-06  0.00D+00 EMaxC= 1.00D-01 BMatC= 4.57D-08 BMatP= 3.20D-07
 IDIUse=1 WtCom= 1.00D+00 WtEn= 0.00D+00
 Coeff-Com:  0.196D-05-0.129D-01-0.549D-02-0.885D-02 0.765D-02 0.279D+00
 Coeff-Com:  0.278D+00 0.463D+00
 Coeff:      0.196D-05-0.129D-01-0.549D-02-0.885D-02 0.765D-02 0.279D+00
 Coeff:      0.278D+00 0.463D+00
 Gap=     0.123 Goal=   None    Shift=    0.000
 RMSDP=6.51D-07 MaxDP=3.68D-05 DE=-4.75D-07 OVMax= 9.37D-05

 Cycle   9  Pass 1  IDiag  1:
 RMSU=  2.44D-07    CP:  9.99D-01  8.73D-01  4.54D-01  4.71D-01  5.96D-01
                    CP:  1.04D+00  5.20D-01  5.08D-01
 E= -7517.81565349336     Delta-E=       -0.000000052820 Rises=F Damp=F
 DIIS: error= 1.22D-06 at cycle   9 NSaved=   9.
 NSaved= 9 IEnMin= 9 EnMin= -7517.81565349336     IErMin= 9 ErrMin= 1.22D-06
 ErrMax= 1.22D-06  0.00D+00 EMaxC= 1.00D-01 BMatC= 3.67D-09 BMatP= 4.57D-08
 IDIUse=1 WtCom= 1.00D+00 WtEn= 0.00D+00
 Coeff-Com:  0.196D-04-0.954D-02-0.388D-02-0.101D-01-0.642D-02 0.108D+00
 Coeff-Com:  0.128D+00 0.284D+00 0.509D+00
 Coeff:      0.196D-04-0.954D-02-0.388D-02-0.101D-01-0.642D-02 0.108D+00
 Coeff:      0.128D+00 0.284D+00 0.509D+00
 Gap=     0.123 Goal=   None    Shift=    0.000
 RMSDP=1.69D-07 MaxDP=1.11D-05 DE=-5.28D-08 OVMax= 2.09D-05

 Cycle  10  Pass 1  IDiag  1:
 RMSU=  8.49D-08    CP:  9.99D-01  8.73D-01  4.54D-01  4.74D-01  6.00D-01
                    CP:  1.05D+00  5.21D-01  5.93D-01  8.25D-01
 E= -7517.81565349667     Delta-E=       -0.000000003303 Rises=F Damp=F
 DIIS: error= 2.04D-07 at cycle  10 NSaved=  10.
 NSaved=10 IEnMin=10 EnMin= -7517.81565349667     IErMin=10 ErrMin= 2.04D-07
 ErrMax= 2.04D-07  0.00D+00 EMaxC= 1.00D-01 BMatC= 6.80D-11 BMatP= 3.67D-09
 IDIUse=1 WtCom= 1.00D+00 WtEn= 0.00D+00
 Coeff-Com:  0.275D-05-0.550D-03-0.127D-03-0.964D-03-0.199D-02-0.379D-02
 Coeff-Com: -0.288D-02 0.190D-01 0.100D+00 0.891D+00
 Coeff:      0.275D-05-0.550D-03-0.127D-03-0.964D-03-0.199D-02-0.379D-02
 Coeff:     -0.288D-02 0.190D-01 0.100D+00 0.891D+00
 Gap=     0.123 Goal=   None    Shift=    0.000
 RMSDP=5.25D-08 MaxDP=2.24D-06 DE=-3.30D-09 OVMax= 9.68D-06

 Cycle  11  Pass 1  IDiag  1:
 RMSU=  2.62D-08    CP:  9.99D-01  8.73D-01  4.54D-01  4.75D-01  6.01D-01
                    CP:  1.05D+00  5.24D-01  5.99D-01  9.13D-01  1.14D+00
 E= -7517.81565349657     Delta-E=        0.000000000100 Rises=F Damp=F
 DIIS: error= 1.11D-07 at cycle  11 NSaved=  11.
 NSaved=11 IEnMin=10 EnMin= -7517.81565349667     IErMin=11 ErrMin= 1.11D-07
 ErrMax= 1.11D-07  0.00D+00 EMaxC= 1.00D-01 BMatC= 2.41D-11 BMatP= 6.80D-11
 IDIUse=1 WtCom= 1.00D+00 WtEn= 0.00D+00
 Coeff-Com: -0.268D-06 0.526D-03 0.270D-03 0.317D-03-0.404D-03-0.111D-01
 Coeff-Com: -0.131D-01-0.132D-01 0.854D-02 0.509D+00 0.519D+00
 Coeff:     -0.268D-06 0.526D-03 0.270D-03 0.317D-03-0.404D-03-0.111D-01
 Coeff:     -0.131D-01-0.132D-01 0.854D-02 0.509D+00 0.519D+00
 Gap=     0.123 Goal=   None    Shift=    0.000
 RMSDP=2.19D-08 MaxDP=1.07D-06 DE= 1.00D-10 OVMax= 2.76D-06

 Cycle  12  Pass 1  IDiag  1:
 RMSU=  1.62D-08    CP:  9.99D-01  8.73D-01  4.54D-01  4.75D-01  6.01D-01
                    CP:  1.06D+00  5.24D-01  6.05D-01  9.30D-01  1.21D+00
                    CP:  6.09D-01
 E= -7517.81565349664     Delta-E=       -0.000000000075 Rises=F Damp=F
 DIIS: error= 1.20D-07 at cycle  12 NSaved=  12.
 NSaved=12 IEnMin=10 EnMin= -7517.81565349667     IErMin=11 ErrMin= 1.11D-07
 ErrMax= 1.20D-07  0.00D+00 EMaxC= 1.00D-01 BMatC= 1.50D-11 BMatP= 2.41D-11
 IDIUse=1 WtCom= 1.00D+00 WtEn= 0.00D+00
 Coeff-Com: -0.677D-06 0.532D-03 0.246D-03 0.423D-03 0.208D-04-0.861D-02
 Coeff-Com: -0.105D-01-0.142D-01-0.961D-02 0.266D+00 0.438D+00 0.337D+00
 Coeff:     -0.677D-06 0.532D-03 0.246D-03 0.423D-03 0.208D-04-0.861D-02
 Coeff:     -0.105D-01-0.142D-01-0.961D-02 0.266D+00 0.438D+00 0.337D+00
 Gap=     0.123 Goal=   None    Shift=    0.000
 RMSDP=1.22D-08 MaxDP=6.02D-07 DE=-7.46D-11 OVMax= 1.53D-06

 Cycle  13  Pass 1  IDiag  1:
 RMSU=  5.21D-09    CP:  9.99D-01  8.73D-01  4.54D-01  4.75D-01  6.01D-01
                    CP:  1.06D+00  5.24D-01  6.07D-01  9.34D-01  1.24D+00
                    CP:  7.96D-01  4.31D-01
 E= -7517.81565349663     Delta-E=        0.000000000011 Rises=F Damp=F
 DIIS: error= 1.94D-08 at cycle  13 NSaved=  13.
 NSaved=13 IEnMin=10 EnMin= -7517.81565349667     IErMin=13 ErrMin= 1.94D-08
 ErrMax= 1.94D-08  0.00D+00 EMaxC= 1.00D-01 BMatC= 7.20D-13 BMatP= 1.50D-11
 IDIUse=1 WtCom= 1.00D+00 WtEn= 0.00D+00
 Coeff-Com: -0.387D-06 0.243D-03 0.107D-03 0.219D-03 0.106D-03-0.339D-02
 Coeff-Com: -0.428D-02-0.689D-02-0.766D-02 0.688D-01 0.177D+00 0.211D+00
 Coeff-Com:  0.565D+00
 Coeff:     -0.387D-06 0.243D-03 0.107D-03 0.219D-03 0.106D-03-0.339D-02
 Coeff:     -0.428D-02-0.689D-02-0.766D-02 0.688D-01 0.177D+00 0.211D+00
 Coeff:      0.565D+00
 Gap=     0.123 Goal=   None    Shift=    0.000
 RMSDP=3.32D-09 MaxDP=2.10D-07 DE= 1.09D-11 OVMax= 4.33D-07

 SCF Done:  E(RPBE1PBE) =  -7517.81565350     A.U. after   13 cycles
            NFock= 13  Conv=0.33D-08     -V/T= 2.1284
 KE= 6.662198472026D+03 PE=-2.474457847235D+04 EE= 6.988039613508D+03
 Leave Link  502 at Tue Mar  6 14:43:55 2018, MaxMem=   536870912 cpu:      2277.4
 (Enter /share/apps//mg09/l701.exe)
 Compute integral first derivatives.
 ... and contract with generalized density number  0.
   1 Symmetry operations used in ECPInt.
 ECPInt:  NShTT=   10440 NPrTT=   41973 LenC2=    9695 LenP2D=   27662.
 LDataN:  DoStor=T MaxTD1= 9 Len=  602
 Leave Link  701 at Tue Mar  6 14:44:13 2018, MaxMem=   536870912 cpu:        71.5
 (Enter /share/apps//mg09/l702.exe)
 L702 exits ... SP integral derivatives will be done elsewhere.
 Leave Link  702 at Tue Mar  6 14:44:13 2018, MaxMem=   536870912 cpu:         0.1
 (Enter /share/apps//mg09/l703.exe)
 Compute integral first derivatives, UseDBF=F ICtDFT=           0.
 Integral derivatives from FoFJK, PRISM(SPDF).
 Calling FoFJK, ICntrl=      2127 FMM=F ISym2X=0 I1Cent= 0 IOpClX= 0 NMat=1 NMatS=1 NMatT=0.
 FoFJK:  IHMeth= 1 ICntrl=    2127 DoSepK=F KAlg= 0 I1Cent=   0 FoldK=F
 IRaf=         0 NMat=   1 IRICut=       1 DoRegI=T DoRafI=F ISym2E= 0.
 FoFCou: FMM=F IPFlag=           0 FMFlag=      100000 FMFlg1=         800
         NFxFlg=           0 DoJE=F BraDBF=F KetDBF=F FulRan=T
         wScrn=  0.000000 ICntrl=    2127 IOpCl=  0 I1Cent=           0 NGrid=           0
         NMat0=    1 NMatS0=      1 NMatT0=    0 NMatD0=    1 NMtDS0=    0 NMtDT0=    0
 Symmetry not used in FoFCou.
 Defaulting to unpruned grid for atomic number  83.
 Defaulting to unpruned grid for atomic number  83.
 Defaulting to unpruned grid for atomic number  83.
 Defaulting to unpruned grid for atomic number  83.
 Leave Link  703 at Tue Mar  6 14:47:04 2018, MaxMem=   536870912 cpu:       683.2
 (Enter /share/apps//mg09/l716.exe)
 Dipole        =-1.85316615D-01-3.29466831D-01 2.38277982D-01
 ***** Axes restored to original set *****
 -------------------------------------------------------------------
 Center     Atomic                   Forces (Hartrees/Bohr)
 Number     Number              X              Y              Z
 -------------------------------------------------------------------
      1       83           0.003181949   -0.000017657   -0.000234677
      2       83          -0.001432308   -0.000204564   -0.000786810
      3       50          -0.000031308    0.006585583   -0.001153399
      4       50          -0.004905555   -0.002498833   -0.003760479
      5       83           0.000195242   -0.002223328    0.000578181
      6       32          -0.001685991    0.004461897    0.005369050
      7       83          -0.001595307   -0.001217383   -0.000448355
      8       32           0.001540305   -0.004618097    0.004876684
      9       32           0.004732973   -0.000267619   -0.004440196
 -------------------------------------------------------------------
 Cartesian Forces:  Max     0.006585583 RMS     0.003060105
 Leave Link  716 at Tue Mar  6 14:47:04 2018, MaxMem=   536870912 cpu:         0.1
 (Enter /share/apps//mg09/l103.exe)

 GradGradGradGradGradGradGradGradGradGradGradGradGradGradGradGradGradGrad
 Berny optimization.
 Search for a local minimum.
 Step number   2 out of a maximum of  100
 All quantities printed in internal units (Hartrees-Bohrs-Radians)
 Update second derivatives using D2CorN and points    1    2
 DE= -5.51D-03 DEPred=-4.07D-03 R= 1.35D+00
 TightC=F SS=  1.41D+00  RLast= 2.19D-01 DXNew= 5.0454D-01 6.5819D-01
 Trust test= 1.35D+00 RLast= 2.19D-01 DXMaxT set to 5.05D-01
 ITU=  1  0
     Eigenvalues ---    0.08616   0.09356   0.12035   0.12193   0.12558
     Eigenvalues ---    0.13707   0.14281   0.14932   0.15484   0.16158
     Eigenvalues ---    0.17159   0.21953   0.22741   0.23875   0.24285
     Eigenvalues ---    0.24797   0.27203   0.27984   0.29077   0.29942
     Eigenvalues ---    0.32082
 RFO step:  Lambda=-3.64749236D-04 EMin= 8.61633330D-02
 Quartic linear search produced a step of  0.60553.
 TrRot=  0.000115 -0.000130  0.000244  0.000005  0.000003  0.000005
 Variable       Old X    -DE/DX   Delta X   Delta X   Delta X     New X
                                 (Linear)    (Quad)   (Total)
    X1       -4.32720   0.00318   0.03202  -0.00679   0.02536  -4.30184
    Y1       -1.45360  -0.00002   0.00818  -0.00141   0.00660  -1.44701
    Z1       -1.27604  -0.00023   0.01219  -0.00455   0.00789  -1.26815
    X2        3.01572  -0.00143  -0.02235   0.00683  -0.01545   3.00027
    Y2        3.19059  -0.00020  -0.02849   0.01728  -0.01132   3.17928
    Z2       -1.12764  -0.00079   0.00551  -0.00761  -0.00186  -1.12950
    X3       -0.47780  -0.00003   0.00013  -0.00064  -0.00035  -0.47814
    Y3       -4.71642   0.00659   0.04832   0.00804   0.05623  -4.66019
    Z3        1.59460  -0.00115  -0.01475   0.00161  -0.01289   1.58172
    X4        2.07096  -0.00491  -0.02882  -0.00838  -0.03707   2.03389
    Y4        0.55061  -0.00250  -0.01480  -0.00665  -0.02156   0.52905
    Z4        4.11242  -0.00376  -0.03572  -0.00340  -0.03889   4.07353
    X5       -2.21133   0.00020   0.01311  -0.00971   0.00348  -2.20785
    Y5        3.70190  -0.00222  -0.03287   0.00712  -0.02590   3.67600
    Z5        0.95954   0.00058  -0.00739   0.00532  -0.00182   0.95773
    X6        0.05887  -0.00169  -0.00570  -0.00264  -0.00821   0.05066
    Y6       -3.04513   0.00446   0.03408   0.00478   0.03873  -3.00640
    Z6       -3.86366   0.00537   0.03896   0.01120   0.05040  -3.81326
    X7        4.20201  -0.00160  -0.03409   0.01283  -0.02113   4.18088
    Y7       -2.27603  -0.00122   0.01713  -0.01672   0.00032  -2.27571
    Z7       -0.41356  -0.00045   0.00159  -0.00562  -0.00380  -0.41736
    X8       -1.20250   0.00154   0.01269   0.00333   0.01610  -1.18640
    Y8        1.92470  -0.00462  -0.03006  -0.00794  -0.03814   1.88656
    Z8       -4.27034   0.00488   0.03554   0.00651   0.04230  -4.22804
    X9       -3.16381   0.00473   0.03301   0.00411   0.03726  -3.12654
    Y9       -0.63790  -0.00027  -0.00149  -0.00331  -0.00496  -0.64286
    Z9        4.01962  -0.00444  -0.03594  -0.00566  -0.04135   3.97827
         Item               Value     Threshold  Converged?
[...]
     22 -0.136468D-01 -0.178940D-01  0.787028D-02 -0.256595D-01 -0.870901D-02
     23 -0.146584D-01 -0.104262D-01  0.118647D-01 -0.108458D-01 -0.148819D-02
     24  0.563219D-02  0.144507D-01 -0.108449D-01 -0.158698D-01 -0.179826D-02
     25 -0.680646D-02 -0.215774D-02 -0.814742D-02 -0.269159D-02  0.334870D-03
     26 -0.189513D-02  0.141558D-02 -0.519065D-02 -0.322568D-02 -0.137267D-03
     27 -0.621655D-02 -0.559257D-02 -0.328202D-01 -0.191326D-03 -0.101866D-02
                6             7             8             9            10 
      6  0.407990D-01
      7  0.142686D-02  0.554893D-01
      8  0.772502D-03 -0.371901D-02  0.634579D-01
      9 -0.388430D-02 -0.872814D-02 -0.131072D-01  0.393362D-01
     10  0.115689D-02 -0.749717D-03 -0.412777D-02 -0.348675D-02  0.545781D-01
     11  0.999047D-02 -0.556668D-02 -0.944715D-02 -0.421500D-02  0.327005D-02
     12 -0.168598D-01 -0.363903D-02 -0.196180D-02 -0.324200D-02  0.401465D-02
     13  0.195528D-01 -0.374402D-02 -0.213484D-02 -0.174328D-02 -0.642884D-02
     14  0.153825D-02  0.101186D-02 -0.724767D-02 -0.146706D-02  0.741096D-02
     15 -0.388750D-02 -0.227578D-02  0.381105D-02  0.831559D-03 -0.565385D-02
     16 -0.400738D-02  0.332447D-02  0.115933D-02  0.269803D-02  0.159384D-02
     17 -0.263045D-02  0.361630D-03 -0.529202D-02  0.432494D-02 -0.150756D-02
     18  0.115816D-03  0.133283D-02  0.331155D-02 -0.152876D-01  0.278870D-02
     19  0.332825D-02 -0.294397D-01 -0.107876D-01  0.127100D-01 -0.843240D-02
     20  0.706975D-02 -0.131896D-01 -0.811737D-02  0.718862D-02  0.579159D-02
     21  0.124133D-02  0.137040D-01  0.483581D-02 -0.232559D-02  0.888656D-02
     22 -0.170811D-01 -0.385125D-02 -0.403980D-03  0.959576D-03 -0.214981D-02
     23 -0.296737D-02  0.240119D-02 -0.345404D-02  0.485569D-02  0.173660D-02
     24 -0.155283D-01  0.312509D-03  0.658585D-04 -0.300782D-02  0.386959D-03
     25  0.234940D-02 -0.814784D-02  0.917966D-02  0.909485D-02 -0.327706D-01
     26  0.307274D-02  0.133619D-01 -0.163389D-01 -0.993657D-02 -0.791146D-02
     27 -0.282985D-02  0.902403D-02 -0.735382D-02 -0.650982D-02 -0.158627D-02
               11            12            13            14            15 
     11  0.288488D-01
     12  0.731867D-02  0.630284D-01
     13  0.907794D-02 -0.694761D-02  0.614297D-01
     14 -0.438678D-02  0.130802D-02 -0.113931D-01  0.744784D-01
     15  0.213758D-02 -0.582015D-02 -0.180840D-01  0.114409D-02  0.480313D-01
     16 -0.525865D-02 -0.339625D-02 -0.370014D-02  0.146715D-02  0.338677D-02
     17 -0.275861D-02  0.169716D-02 -0.188627D-02 -0.468117D-02 -0.871422D-02
     18 -0.359169D-02 -0.530254D-02 -0.171544D-03 -0.310051D-02 -0.334505D-02
     19  0.627957D-02  0.801677D-02 -0.512044D-03  0.716489D-03 -0.156153D-02
     20 -0.617348D-02 -0.133888D-01  0.885269D-02  0.666395D-03 -0.850964D-03
     21 -0.130359D-01 -0.205835D-01  0.498706D-03 -0.961528D-03 -0.241459D-02
     22  0.440502D-02 -0.250931D-02  0.246045D-02  0.466188D-02  0.464659D-02
     23  0.963801D-03 -0.377983D-02  0.272404D-02 -0.964295D-02 -0.547296D-02
     24  0.338559D-02 -0.498670D-02  0.167318D-02 -0.792373D-02 -0.200336D-01
     25 -0.691073D-02  0.302225D-02 -0.360654D-02 -0.203670D-02  0.525668D-02
     26 -0.650047D-03 -0.640117D-04 -0.414356D-02 -0.286104D-01  0.161042D-01
     27 -0.105678D-02 -0.242884D-02  0.639791D-02  0.163840D-01 -0.113319D-01
               16            17            18            19            20 
     16  0.625160D-01
     17 -0.138852D-01  0.457811D-01
     18 -0.186502D-02  0.125100D-01  0.598788D-01
     19 -0.258444D-01 -0.271591D-02 -0.142154D-01  0.781895D-01
     20 -0.478229D-02  0.874442D-03 -0.559779D-02 -0.574367D-02  0.698638D-01
     21 -0.152000D-01 -0.472632D-02 -0.157786D-01 -0.826562D-02  0.446484D-02
     22 -0.156960D-02  0.597317D-02  0.241387D-03 -0.173061D-02  0.288015D-02
     23  0.847253D-02 -0.286157D-01  0.613202D-02 -0.718759D-03 -0.296248D-02
     24  0.480659D-03  0.109226D-02 -0.506454D-02  0.102914D-03 -0.151205D-03
     25 -0.705239D-03  0.100112D-02 -0.627410D-03 -0.282930D-02 -0.128831D-02
     26  0.342454D-02 -0.136069D-02 -0.152274D-02  0.313390D-03 -0.342035D-02
     27  0.225584D-02  0.212012D-02 -0.384230D-02 -0.115236D-03  0.414089D-04
               21            22            23            24            25 
     21  0.426181D-01
     22 -0.613555D-02  0.452762D-01
     23  0.130561D-02  0.115257D-01  0.548480D-01
     24 -0.828860D-03  0.892802D-02 -0.115749D-01  0.644397D-01
     25  0.334677D-02  0.870961D-03 -0.637119D-03 -0.164663D-02  0.566866D-01
     26 -0.175585D-02 -0.243898D-02  0.777742D-03  0.245368D-02  0.251493D-02
     27 -0.133746D-02  0.308012D-02 -0.362909D-03 -0.414496D-02 -0.126485D-01
               26            27 
     26  0.483243D-01
     27 -0.316077D-02  0.652453D-01
 Leave Link  716 at Tue Mar  6 17:29:01 2018, MaxMem=   536870912 cpu:         0.1
 (Enter /share/apps//mg09/l103.exe)

 GradGradGradGradGradGradGradGradGradGradGradGradGradGradGradGradGradGrad
 Berny optimization.
 Search for a local minimum.
 Step number   1 out of a maximum of    2
 All quantities printed in internal units (Hartrees-Bohrs-Radians)
 Second derivative matrix not updated -- analytic derivatives used.
 ITU=  0
     Eigenvalues ---    0.00412   0.01639   0.02680   0.03371   0.04463
     Eigenvalues ---    0.04884   0.05257   0.05614   0.05767   0.06091
     Eigenvalues ---    0.06167   0.07230   0.08641   0.09099   0.09414
     Eigenvalues ---    0.10555   0.11990   0.12371   0.13102   0.13957
     Eigenvalues ---    0.14106
 Angle between quadratic step and forces=  38.63 degrees.
 Linear search not attempted -- first point.
 TrRot= -0.000036  0.000087 -0.000025  0.000000  0.000001  0.000000
 Variable       Old X    -DE/DX   Delta X   Delta X   Delta X     New X
                                 (Linear)    (Quad)   (Total)
    X1       -4.33108   0.00006   0.00000   0.00144   0.00140  -4.32967
    Y1       -1.45492  -0.00007   0.00000  -0.00373  -0.00364  -1.45856
    Z1       -1.28481   0.00001   0.00000  -0.00042  -0.00044  -1.28525
    X2        3.00478   0.00002   0.00000   0.00069   0.00065   3.00544
    Y2        3.19542   0.00004   0.00000  -0.00026  -0.00017   3.19525
    Z2       -1.13188  -0.00004   0.00000  -0.00015  -0.00018  -1.13206
    X3       -0.45351  -0.00001   0.00000   0.00011   0.00007  -0.45344
    Y3       -4.62699   0.00003   0.00000   0.00088   0.00097  -4.62602
    Z3        1.59871   0.00006   0.00000   0.00311   0.00309   1.60180
    X4        2.01007   0.00000   0.00000  -0.00011  -0.00014   2.00994
    Y4        0.49273  -0.00004   0.00000  -0.00187  -0.00179   0.49094
    Z4        4.05594   0.00002   0.00000   0.00033   0.00030   4.05624
    X5       -2.20097  -0.00003   0.00000   0.00054   0.00050  -2.20046
    Y5        3.69836   0.00001   0.00000   0.00081   0.00090   3.69926
    Z5        0.97581  -0.00001   0.00000  -0.00084  -0.00086   0.97496
    X6        0.03909  -0.00001   0.00000   0.00062   0.00058   0.03967
    Y6       -3.00123   0.00003   0.00000   0.00132   0.00141  -2.99983
    Z6       -3.78845  -0.00005   0.00000  -0.00179  -0.00182  -3.79027
    X7        4.21109  -0.00001   0.00000  -0.00054  -0.00058   4.21050
    Y7       -2.28200  -0.00001   0.00000  -0.00087  -0.00079  -2.28279
    Z7       -0.44181  -0.00003   0.00000  -0.00100  -0.00103  -0.44284
    X8       -1.17547  -0.00003   0.00000  -0.00151  -0.00155  -1.17701
    Y8        1.86053   0.00001   0.00000   0.00126   0.00135   1.86188
    Z8       -4.20731   0.00005   0.00000   0.00165   0.00162  -4.20569
    X9       -3.13909   0.00001   0.00000  -0.00091  -0.00094  -3.14003
    Y9       -0.64317   0.00000   0.00000   0.00167   0.00176  -0.64141
    Z9        3.95873   0.00000   0.00000  -0.00067  -0.00069   3.95804
         Item               Value     Threshold  Converged?
 Maximum Force            0.000068     0.000450     YES
 RMS     Force            0.000031     0.000300     YES
 Maximum Displacement     0.003637     0.001800     NO 
 RMS     Displacement     0.001366     0.001200     NO 
 Predicted change in Energy=-4.496022D-07
 GradGradGradGradGradGradGradGradGradGradGradGradGradGradGradGradGradGrad

 Leave Link  103 at Tue Mar  6 17:29:01 2018, MaxMem=   536870912 cpu:         0.1
 (Enter /share/apps//mg09/l9999.exe)
 1\1\GINC-COMPUTE-0-5\Freq\RPBE1PBE\def2TZVP\Bi4Ge3Sn2\RODRIGO\06-Mar-2
 018\0\\#P Geom=AllCheck Guess=TCheck SCRF=Check GenChk RPBE1PBE/def2TZ
 VP Freq\\01Final_coords.xyz_34\\0,1\Bi,-2.2919062,-0.7699110799,-0.679
 8906314\Bi,1.5900617507,1.6909446244,-0.5989668783\Sn,-0.2399871705,-2
 .4484976375,0.8460026556\Sn,1.0636856642,0.2607390443,2.1463135701\Bi,
 -1.1647005942,1.9570879337,0.5163787489\Ge,0.0206853174,-1.5881847338,
 -2.0047618864\Bi,2.2284108027,-1.2075828224,-0.2337951548\Ge,-0.622030
 5104,0.9845488966,-2.2264135918\Ge,-1.6611350599,-0.3403492253,2.09486
 8168\\Version=ES64L-G09RevD.01\State=1-A\HF=-7517.8171545\RMSD=7.820e-
 09\RMSF=3.118e-05\ZeroPoint=0.005784\Thermal=0.0232864\Dipole=0.195721
 8,0.3539263,0.2214285\DipoleDeriv=0.1163968,0.021467,0.0748508,-0.0395
 434,0.0957489,0.0818251,-0.0442323,0.0716135,-0.0471005,-0.0649422,0.0
 919085,-0.1033754,0.0454867,0.0550967,0.0195646,-0.0152915,0.0942539,-
 0.0745624,0.0011777,0.0319752,0.0430729,0.0358979,0.3139509,-0.0965279
 ,0.0425258,-0.0736284,0.0611177,0.0858713,0.0047637,0.171375,0.0073767
 ,0.0619169,0.059232,0.0953139,0.0285597,0.2194815,0.0952055,-0.0540264
 ,0.0074588,0.0273221,0.0252032,-0.0295271,0.0480426,-0.0165297,0.02051
 35,-0.0922051,0.0714068,-0.0305844,0.0717185,-0.1035223,0.1962954,0.01
 55465,0.0269669,-0.0638171,0.0372262,-0.1203788,-0.0563696,-0.1358083,
 -0.1019622,-0.0394023,0.0127939,-0.0713707,-0.122586,-0.1233913,-0.049
 494,0.1133169,-0.0302371,-0.1278991,-0.1672807,0.0131323,-0.0516443,-0
 .0129505,-0.0553389,0.0023781,-0.2197451,0.017787,-0.218533,-0.0241791
 ,-0.1678312,-0.0082209,0.0199039\Polar=378.8687469,1.7331222,379.42447
 14,0.4409665,-3.1234912,371.6099929\PG=C01 [X(Bi4Ge3Sn2)]\NImag=0\\0.0
 8759138,0.00656383,0.04402363,0.00168820,-0.00226069,0.06654188,-0.005
 08368,-0.00434030,0.00178202,0.08081674,0.00045534,-0.00329967,-0.0017
 3558,0.00410857,0.06842329,0.00029491,-0.00345373,0.00083361,-0.007020
 66,-0.01339217,0.04079902,-0.01610846,0.01171890,-0.01115731,0.0032271
 8,-0.00638025,0.00142686,0.05548931,0.00910308,-0.00863788,0.00962608,
 0.00173117,-0.00492296,0.00077250,-0.00371901,0.06345794,-0.01046585,0
 .01215938,-0.00591059,-0.00103840,0.00019723,-0.00388430,-0.00872814,-
 0.01310722,0.03933620,-0.00244555,-0.00079709,-0.00650688,-0.00319504,
 -0.00386532,0.00115689,-0.00074972,-0.00412777,-0.00348675,0.05457808,
 0.00004596,-0.00418843,-0.00093295,-0.00534247,-0.00220811,0.00999047,
 -0.00556668,-0.00944715,-0.00421500,0.00327005,0.02884881,-0.00138681,
 -0.00007141,-0.00380480,0.00282536,0.00894202,-0.01685984,-0.00363903,
 -0.00196180,-0.00324200,0.00401465,0.00731867,0.06302841,-0.00497818,-
 0.00659504,-0.00117615,-0.04092044,0.00549808,0.01955284,-0.00374402,-
 0.00213484,-0.00174328,-0.00642884,0.00907794,-0.00694761,0.06142974,-
 0.00764311,-0.01588070,-0.00692152,0.00580452,-0.00469513,0.00153825,0
 .00101186,-0.00724767,-0.00146706,0.00741096,-0.00438678,0.00130802,-0
 .01139305,0.07447843,-0.00224426,-0.00924728,-0.00203012,0.01652942,0.
 00108854,-0.00388750,-0.00227578,0.00381105,0.00083156,-0.00565385,0.0
 0213758,-0.00582015,-0.01808404,0.00114409,0.04803135,-0.03405921,0.01
 183367,0.01564733,-0.00155566,-0.00243106,-0.00400738,0.00332447,0.001
 15933,0.00269803,0.00159384,-0.00525865,-0.00339625,-0.00370014,0.0014
 6715,0.00338677,0.06251596,0.00986318,-0.00062690,-0.00567350,0.002795
 86,-0.00332050,-0.00263045,0.00036163,-0.00529202,0.00432494,-0.001507
 56,-0.00275861,0.00169716,-0.00188627,-0.00468117,-0.00871422,-0.01388
 522,0.04578115,0.01260744,-0.00902815,-0.01137401,-0.00009096,0.000887
 30,0.00011582,0.00133283,0.00331155,-0.01528763,0.00278870,-0.00359169
 ,-0.00530254,-0.00017154,-0.00310051,-0.00334505,-0.00186502,0.0125100
 1,0.05987884,-0.00446305,0.00166775,-0.00000007,-0.00493799,0.01098878
 ,0.00332825,-0.02943967,-0.01078763,0.01270996,-0.00843240,0.00627957,
 0.00801677,-0.00051204,0.00071649,-0.00156153,-0.02584442,-0.00271591,
 -0.01421542,0.07818949,-0.00183471,-0.00237945,0.00122415,0.00931413,-
 0.04835148,0.00706975,-0.01318958,-0.00811737,0.00718862,0.00579159,-0
 .00617348,-0.01338882,0.00885269,0.00066640,-0.00085096,-0.00478229,0.
 00087444,-0.00559779,-0.00574367,0.06986378,0.00009072,0.00304374,-0.0
 0059085,0.00307435,0.00682959,0.00124133,0.01370403,0.00483581,-0.0023
 2559,0.00888656,-0.01303589,-0.02058355,0.00049871,-0.00096153,-0.0024
 1459,-0.01519998,-0.00472632,-0.01577857,-0.00826562,0.00446484,0.0426
 1814,-0.01364678,-0.01789399,0.00787028,-0.02565952,-0.00870901,-0.017
 08110,-0.00385125,-0.00040398,0.00095958,-0.00214981,0.00440502,-0.002
 50931,0.00246045,0.00466188,0.00464659,-0.00156960,0.00597317,0.000241
 39,-0.00173061,0.00288015,-0.00613555,0.04527616,-0.01465842,-0.010426
 19,0.01186466,-0.01084580,-0.00148819,-0.00296737,0.00240119,-0.003454
 04,0.00485569,0.00173660,0.00096380,-0.00377983,0.00272404,-0.00964295
 ,-0.00547296,0.00847253,-0.02861570,0.00613202,-0.00071876,-0.00296248
 ,0.00130561,0.01152573,0.05484801,0.00563219,0.01445070,-0.01084490,-0
 .01586980,-0.00179826,-0.01552829,0.00031251,0.00006586,-0.00300782,0.
 00038696,0.00338559,-0.00498670,0.00167318,-0.00792373,-0.02003364,0.0
 0048066,0.00109226,-0.00506454,0.00010291,-0.00015120,-0.00082886,0.00
 892802,-0.01157490,0.06443970,-0.00680646,-0.00215774,-0.00814742,-0.0
 0269159,0.00033487,0.00234940,-0.00814784,0.00917966,0.00909485,-0.032
 77056,-0.00691073,0.00302225,-0.00360654,-0.00203670,0.00525668,-0.000
 70524,0.00100112,-0.00062741,-0.00282930,-0.00128831,0.00334677,0.0008
 7096,-0.00063712,-0.00164663,0.05668657,-0.00189513,0.00141558,-0.0051
 9065,-0.00322568,-0.00013727,0.00307274,0.01336195,-0.01633886,-0.0099
 3657,-0.00791146,-0.00065005,-0.00006401,-0.00414356,-0.02861043,0.016
 10417,0.00342454,-0.00136069,-0.00152274,0.00031339,-0.00342035,-0.001
 75585,-0.00243898,0.00077774,0.00245368,0.00251493,0.04832431,-0.00621
 655,-0.00559257,-0.03282023,-0.00019133,-0.00101866,-0.00282985,0.0090
 2403,-0.00735382,-0.00650982,-0.00158627,-0.00105678,-0.00242884,0.006
 39791,0.01638398,-0.01133185,0.00225584,0.00212012,-0.00384230,-0.0001
 1524,0.00004141,-0.00133746,0.00308012,-0.00036291,-0.00414496,-0.0126
 4851,-0.00316077,0.06524532\\-0.00005578,0.00006795,-0.00000745,-0.000
 02151,-0.00004131,0.00003602,0.00001102,-0.00002614,-0.00005792,0.0000
 0049,0.00003844,-0.00002024,0.00002747,-0.00001210,0.00001488,0.000011
 82,-0.00002915,0.00004955,0.00001331,0.00000523,0.00003111,0.00002807,
 -0.00000603,-0.00004642,-0.00001488,0.00000311,0.00000047\\\@


                                                                                    A
                                                                                  AA
                                                                                 AAA
                                                                                AAAA
                                                                               AAAAA
                                                                              AAAAAA   KKKKKKKK
                                                                             AAAAAAA   KKKKKKKK
                                                                            AAAAAAAA   KKKKKKKK
                                       ZZZZZZZZZZZZZZZZZZZZ                AAAA  AAA   KKKKKKKK
                                       ZZZZZZZZZZZZZZZZZZZ                AAAA   AAA   KKKKKKKK          K
                                       ZZZZZZZZZZZZZZZZZZ                AAAA    AAA   KKKKKKKK         KKK
                                       ZZZZZZZZZZZZZZZZZ                AAAA     AAA   KKKKKKKK        KKKKK
                                       ZZZZZZZZZZZZZZZZ                AAAA      AAA   KKKKKKKK       KKKKKKK
                                                ZZZZZZ                AAAA       AAA   KKKKKKKK      KKKKKKK
                                               ZZZZZZ                AAAA        AAA   KKKKKKKK     KKKKKKK
                                              ZZZZZZ                AAAA         AAA   KKKKKKKK    KKKKKKK
                                             ZZZZZZ                AAAA          AAA   KKKKKKKK   KKKKKKK
                                            ZZZZZZ                AAAAAAAAAAAAAAAAAA   KKKKKKKK  KKKKKKK
                                           ZZZZZZ                AAAAAAAAAAAAAAAAAAA   KKKKKKKK KKKKKKK
                                          ZZZZZZ                AAAAAAAAAAAAAAAAAAAA   KKKKKKKKKKKKKKK
                                         ZZZZZZ                AAAAAAAAAAAAAAAAAAAAA   KKKKKKKKKKKKKK
                                        ZZZZZZ                AAAAAA        AAAAAAAA   KKKKKKKKKKKKK
                                       ZZZZZZ                AAAAAA         AAAAAAAA   KKKKKKKKKKKK
                                      ZZZZZZ                AAAAAA          AAAAAAAA   KKKKKKKKKKK
                                     ZZZZZZ                AAAAAA           AAAAAAAA   KKKKKKKKKKKK
                                    ZZZZZZ                AAAAAA            AAAAAAAA   KKKKKKKKKKKKK
                                   ZZZZZZ                AAAAAA             AAAAAAAA   KKKKKKKKKKKKKK
                                  ZZZZZZ                AAAAAA              AAAAAAAA   KKKKKKKKKKKKKKK
                                 ZZZZZZ                AAAAAA               AAAAAAAA   KKKKK KKKKKKKKKK
                                ZZZZZZ                AAAAAA                AAAAAAAA   KKKKK  KKKKKKKKKK
                               ZZZZZZ                AAAAAA                            KKKKK   KKKKKKKKKK
                              ZZZZZZ                AAAAAA                             KKKKK    KKKKKKKKKK
                             ZZZZZZ                                                    KKKKK     KKKKKKKKKK
                            ZZZZZZ                                                     KKKKK      KKKKKKKKKK
                           ZZZZZZ                                                      KKKKK       KKKKKKKKKK
                          ZZZZZZ                                                       KKKKK        KKKKKKKKKK
                         ZZZZZZZZZZZZZZZZZZZZZZZZZZZZZZZZZZZZZZZZ                      KKKKK         KKKKKKKKKK
                        ZZZZZZZZZZZZZZZZZZZZZZZZZZZZZZZZZZZZZZZZZ                      KKKKK          KKKKKKKKKK
                       ZZZZZZZZZZZZZZZZZZZZZZZZZZZZZZZZZZZZZZZZZZ                      KKKKK           KKKKKKKKKK
                       ZZZZZZZZZZZZZZZZZZZZZZZZZZZZZZZZZZZZZZZZZZ                      KKKKK            KKKKKKKKKK
                       ZZZZZZZZZZZZZZZZZZZZZZZZZZZZZZZZZZZZZZZZZZ                      KKKKK             KKKKKKKKKK
                       ZZZZZZZZZZZZZZZZZZZZZZZZZZZZZZZZZZZZZZZZZZ                      KKKKK              KKKKKKKKKK
                       ZZZZZZZZZZZZZZZZZZZZZZZZZZZZZZZZZZZZZZZZZZ                      KKKKK               KKKKKKKKKK
                       ZZZZZZZZZZZZZZZZZZZZZZZZZZZZZZZZZZZZZZZZZZ                      KKKKK                KKKKKKKKKK
                       ZZZZZZZZZZZZZZZZZZZZZZZZZZZZZZZZZZZZZZZZZZ                      KKKKK
                                                                                       KKKKK
                                                                                          (J.P.)
 Job cpu time:       0 days  3 hours 50 minutes 21.9 seconds.
 File lengths (MBytes):  RWF=    299 Int=      0 D2E=      0 Chk=     16 Scr=      1
 Normal termination of Gaussian 09 at Tue Mar  6 17:29:03 2018.
