 Entering Gaussian System, Link 0=/share/apps/mg09/g09
 Initial command:
 /share/apps//mg09/l1.exe "/state/partition1/gauss_tmp/Gau-18941.inp" -scrdir="/state/partition1/gauss_tmp/"
 Entering Link 1 = /share/apps//mg09/l1.exe PID=     18951.
  
 Copyright (c) 1988,1990,1992,1993,1995,1998,2003,2009,2013,
            Gaussian, Inc.  All Rights Reserved.
  
 This is part of the Gaussian(R) 09 program.  It is based on
 the Gaussian(R) 03 system (copyright 2003, Gaussian, Inc.),
 the Gaussian(R) 98 system (copyright 1998, Gaussian, Inc.),
 the Gaussian(R) 94 system (copyright 1995, Gaussian, Inc.),
 the Gaussian 92(TM) system (copyright 1992, Gaussian, Inc.),
 the Gaussian 90(TM) system (copyright 1990, Gaussian, Inc.),
 the Gaussian 88(TM) system (copyright 1988, Gaussian, Inc.),
 the Gaussian 86(TM) system (copyright 1986, Carnegie Mellon
 University), and the Gaussian 82(TM) system (copyright 1983,
 Carnegie Mellon University). Gaussian is a federally registered
 trademark of Gaussian, Inc.
  
 This software contains proprietary and confidential information,
 including trade secrets, belonging to Gaussian, Inc.
  
 This software is provided under written license and may be
 used, copied, transmitted, or stored only in accord with that
 written license.
  
 The following legend is applicable only to US Government
 contracts under FAR:
  
                    RESTRICTED RIGHTS LEGEND
  
 Use, reproduction and disclosure by the US Government is
 subject to restrictions as set forth in subparagraphs (a)
 and (c) of the Commercial Computer Software - Restricted
 Rights clause in FAR 52.227-19.
  
 Gaussian, Inc.
 340 Quinnipiac St., Bldg. 40, Wallingford CT 06492
  
  
 ---------------------------------------------------------------
 Warning -- This program may not be used in any manner that
 competes with the business of Gaussian, Inc. or will provide
 assistance to any competitor of Gaussian, Inc.  The licensee
 of this program is prohibited from giving any competitor of
 Gaussian, Inc. access to this program.  By using this program,
 the user acknowledges that Gaussian, Inc. is engaged in the
 business of creating and licensing software in the field of
 computational chemistry and represents and warrants to the
 licensee that it is not a competitor of Gaussian, Inc. and that
 it will not use this program in any manner prohibited above.
 ---------------------------------------------------------------
  

 Cite this work as:
 Gaussian 09, Revision D.01,
 M. J. Frisch, G. W. Trucks, H. B. Schlegel, G. E. Scuseria, 
 M. A. Robb, J. R. Cheeseman, G. Scalmani, V. Barone, B. Mennucci, 
 G. A. Petersson, H. Nakatsuji, M. Caricato, X. Li, H. P. Hratchian, 
 A. F. Izmaylov, J. Bloino, G. Zheng, J. L. Sonnenberg, M. Hada, 
 M. Ehara, K. Toyota, R. Fukuda, J. Hasegawa, M. Ishida, T. Nakajima, 
 Y. Honda, O. Kitao, H. Nakai, T. Vreven, J. A. Montgomery, Jr., 
 J. E. Peralta, F. Ogliaro, M. Bearpark, J. J. Heyd, E. Brothers, 
 K. N. Kudin, V. N. Staroverov, T. Keith, R. Kobayashi, J. Normand, 
 K. Raghavachari, A. Rendell, J. C. Burant, S. S. Iyengar, J. Tomasi, 
 M. Cossi, N. Rega, J. M. Millam, M. Klene, J. E. Knox, J. B. Cross, 
 V. Bakken, C. Adamo, J. Jaramillo, R. Gomperts, R. E. Stratmann, 
 O. Yazyev, A. J. Austin, R. Cammi, C. Pomelli, J. W. Ochterski, 
 R. L. Martin, K. Morokuma, V. G. Zakrzewski, G. A. Voth, 
 P. Salvador, J. J. Dannenberg, S. Dapprich, A. D. Daniels, 
 O. Farkas, J. B. Foresman, J. V. Ortiz, J. Cioslowski, 
 and D. J. Fox, Gaussian, Inc., Wallingford CT, 2013.
 
 ******************************************
 Gaussian 09:  ES64L-G09RevD.01 24-Apr-2013
                 6-Mar-2018 
 ******************************************
 %NProcShared=4
 Will use up to    4 processors via shared memory.
 %LindaWorkers=compute-0-1
 %chk=Isomer_20.chk
 %NProc=4
 Will use up to    4 processors via shared memory.
 %mem=4GB
 SetLPE:  input flags=" -vv -opt "Tsnet.Node.lindarsharg: ssh" "
 SetLPE:    new flags=" -vv -opt "Tsnet.Node.lindarsharg: ssh"  -nodelist 'compute-0-1.local'"
 Will use up to    1 processors via Linda.
 ----------------------------------------------------------------------
 #p PBE1PBE/Def2TZVP scf=(maxcycle=768) opt=(cartesian,maxcycle=512) fr
 eq
 ----------------------------------------------------------------------
 1/6=512,10=7,14=-1,18=10,26=3,38=1/1,3;
 2/12=2,17=6,18=5,29=2,40=1/2;
 3/5=44,7=101,11=2,16=1,25=1,30=1,71=1,74=-13/1,2,3;
 4//1;
 5/5=2,7=768,38=5/2;
 6/7=2,8=2,9=2,10=2,28=1/1;
 7/7=1,29=1/1,2,3,16;
 1/6=512,10=7,14=-1,18=10,26=3/3(2);
 2/29=1/2;
 99/12=1/99;
 2/29=1/2;
 3/5=44,7=101,11=2,16=1,25=1,30=1,71=1,74=-13/1,2,3;
 4/5=5,16=3,69=1/1;
 5/5=2,7=768,38=5/2;
 7/7=1/1,2,3,16;
 1/6=512,14=-1,18=10,26=3/3(-5);
 2/29=1/2;
 6/7=2,8=2,9=2,10=2,19=2,28=1/1;
 99/9=1,12=1/99;
 Leave Link    1 at Tue Mar  6 11:56:29 2018, MaxMem=   536870912 cpu:         0.6
 (Enter /share/apps//mg09/l101.exe)
 ---------------------
 01Final_coords.xyz_20
 ---------------------
 Symbolic Z-matrix:
 Charge =  0 Multiplicity = 1
 50                    1.13357   2.40114   0.92519 
 83                   -2.10883  -1.08637   0.07871 
 32                    1.60389  -0.18774   2.20555 
 83                   -0.09063  -0.39335  -2.16047 
 32                   -1.02861   0.97817   2.25309 
 50                    0.8907   -2.4711    0.05725 
 32                   -0.62233  -1.72291   2.42627 
 83                   -1.46862   1.82719  -0.58243 
 83                    2.46679   0.05419  -0.58208 
 
 NAtoms=      9 NQM=        9 NQMF=       0 NMMI=      0 NMMIF=      0
                NMic=       0 NMicF=      0.
                    Isotopes and Nuclear Properties:
 (Nuclear quadrupole moments (NQMom) in fm**2, nuclear magnetic moments (NMagM)
  in nuclear magnetons)

  Atom         1           2           3           4           5           6           7           8           9
 IAtWgt=         118         209          74         209          74         118          74         209         209
 AtmWgt= 117.9018000 208.9804000  73.9211788 208.9804000  73.9211788 117.9018000  73.9211788 208.9804000 208.9804000
 NucSpn=           0           9           0           9           0           0           0           9           9
 AtZEff=   0.0000000   0.0000000   0.0000000   0.0000000   0.0000000   0.0000000   0.0000000   0.0000000   0.0000000
 NQMom=    0.0000000 -51.6000000   0.0000000 -51.6000000   0.0000000   0.0000000   0.0000000 -51.6000000 -51.6000000
 NMagM=    0.0000000   4.1106000   0.0000000   4.1106000   0.0000000   0.0000000   0.0000000   4.1106000   4.1106000
 AtZNuc=  50.0000000  83.0000000  32.0000000  83.0000000  32.0000000  50.0000000  32.0000000  83.0000000  83.0000000
 Leave Link  101 at Tue Mar  6 11:56:38 2018, MaxMem=   536870912 cpu:         0.5
 (Enter /share/apps//mg09/l103.exe)

 GradGradGradGradGradGradGradGradGradGradGradGradGradGradGradGradGradGrad
 Berny optimization.
 Initialization pass.
 No Z-matrix variables, so optimization will use Cartesian coordinates.
 Trust Radius=3.00D-01 FncErr=1.00D-07 GrdErr=1.00D-06
 Number of steps in this run=    100 maximum allowed number of steps=    100.
 GradGradGradGradGradGradGradGradGradGradGradGradGradGradGradGradGradGrad

 Leave Link  103 at Tue Mar  6 11:56:54 2018, MaxMem=   536870912 cpu:         0.1
 (Enter /share/apps//mg09/l202.exe)
 ---------------------------------------------------------------------------------------------------
                            Z-MATRIX (ANGSTROMS AND DEGREES)
   CD    Cent   Atom    N1       Length/X        N2       Alpha/Y        N3        Beta/Z          J
 ---------------------------------------------------------------------------------------------------
      1      1  Sn       0   1.133566          2.401140          0.925189
      2      2  Bi       0  -2.108832         -1.086373          0.078714
      3      3  Ge       0   1.603889         -0.187742          2.205550
      4      4  Bi       0  -0.090629         -0.393353         -2.160468
      5      5  Ge       0  -1.028608          0.978173          2.253094
      6      6  Sn       0   0.890695         -2.471099          0.057252
      7      7  Ge       0  -0.622326         -1.722911          2.426269
      8      8  Bi       0  -1.468624          1.827188         -0.582425
      9      9  Bi       0   2.466788          0.054193         -0.582076
 ---------------------------------------------------------------------------------------------------
                         Z-Matrix orientation:                         
 ---------------------------------------------------------------------
 Center     Atomic      Atomic             Coordinates (Angstroms)
 Number     Number       Type             X           Y           Z
 ---------------------------------------------------------------------
      1         50           0        1.133566    2.401140    0.925189
      2         83           0       -2.108832   -1.086373    0.078714
      3         32           0        1.603889   -0.187742    2.205550
      4         83           0       -0.090629   -0.393353   -2.160468
      5         32           0       -1.028608    0.978173    2.253094
      6         50           0        0.890695   -2.471099    0.057252
      7         32           0       -0.622326   -1.722911    2.426269
      8         83           0       -1.468624    1.827188   -0.582425
      9         83           0        2.466788    0.054193   -0.582076
 ---------------------------------------------------------------------
                    Distance matrix (angstroms):
                    1          2          3          4          5
     1  Sn   0.000000
     2  Bi   4.836570   0.000000
     3  Ge   2.926233   4.372101   0.000000
     4  Bi   4.339254   3.093114   4.687833   0.000000
     5  Ge   2.909152   3.187030   2.879524   4.715975   0.000000
     6  Sn   4.954898   3.303799   3.215206   3.193479   4.516960
     7  Ge   4.726965   2.850596   2.713207   4.805058   2.736953
     8  Bi   3.061652   3.055456   4.612275   3.052850   2.992425
     9  Bi   3.091519   4.761705   2.928137   3.038421   4.594532
                    6          7          8          9
     6  Sn   0.000000
     7  Ge   2.908824   0.000000
     8  Bi   4.944779   4.729869   0.000000
     9  Bi   3.044653   4.663782   4.316362   0.000000
 Stoichiometry    Bi4Ge3Sn2
 Framework group  C1[X(Bi4Ge3Sn2)]
 Deg. of freedom    21
 Full point group                 C1      NOp   1
 Largest Abelian subgroup         C1      NOp   1
 Largest concise Abelian subgroup C1      NOp   1
                         Standard orientation:                         
 ---------------------------------------------------------------------
 Center     Atomic      Atomic             Coordinates (Angstroms)
 Number     Number       Type             X           Y           Z
 ---------------------------------------------------------------------
      1         50           0        1.133566    2.401140    0.925189
      2         83           0       -2.108832   -1.086373    0.078714
      3         32           0        1.603889   -0.187742    2.205550
      4         83           0       -0.090629   -0.393353   -2.160468
      5         32           0       -1.028608    0.978173    2.253094
      6         50           0        0.890695   -2.471099    0.057252
      7         32           0       -0.622326   -1.722911    2.426269
      8         83           0       -1.468624    1.827188   -0.582425
      9         83           0        2.466788    0.054193   -0.582076
 ---------------------------------------------------------------------
 Rotational constants (GHZ):      0.0999333      0.0905235      0.0861668
 Leave Link  202 at Tue Mar  6 11:56:57 2018, MaxMem=   536870912 cpu:         0.1
 (Enter /share/apps//mg09/l301.exe)
 Standard basis: def2TZVP (5D, 7F)
 Ernie: Thresh=  0.10000D-02 Tol=  0.10000D-05 Strict=F.
 There are   519 symmetry adapted cartesian basis functions of A   symmetry.
 There are   444 symmetry adapted basis functions of A   symmetry.
   444 basis functions,   963 primitive gaussians,   519 cartesian basis functions
   116 alpha electrons      116 beta electrons
       nuclear repulsion energy      3578.7675712481 Hartrees.
 IExCor= 1009 DFT=T Ex+Corr=PBE1PBE ExCW=0 ScaHFX=  0.250000
 ScaDFX=  0.750000  0.750000  1.000000  1.000000 ScalE2=  1.000000  1.000000
 IRadAn=      0 IRanWt=     -1 IRanGd=            0 ICorTp=0 IEmpDi=  4
 NAtoms=    9 NActive=    9 NUniq=    9 SFac= 1.00D+00 NAtFMM=   60 NAOKFM=F Big=F
 Integral buffers will be    131072 words long.
 Raffenetti 2 integral format.
 Two-electron integral symmetry is turned on.
 Leave Link  301 at Tue Mar  6 11:57:12 2018, MaxMem=   536870912 cpu:         0.4
 (Enter /share/apps//mg09/l302.exe)
 NPDir=0 NMtPBC=     1 NCelOv=     1 NCel=       1 NClECP=     1 NCelD=      1
         NCelK=      1 NCelE2=     1 NClLst=     1 CellRange=     0.0.
 One-electron integrals computed using PRISM.
   1 Symmetry operations used in ECPInt.
 ECPInt:  NShTT=   10440 NPrTT=   41973 LenC2=    9692 LenP2D=   27435.
 LDataN:  DoStor=T MaxTD1= 8 Len=  415
 NBasis=   444 RedAO= T EigKep=  1.27D-03  NBF=   444
 NBsUse=   444 1.00D-06 EigRej= -1.00D+00 NBFU=   444
 Precomputing XC quadrature grid using
 IXCGrd= 4 IRadAn=           0 IRanWt=          -1 IRanGd=           0 AccXCQ= 0.00D+00.
 Defaulting to unpruned grid for atomic number  50.
 Defaulting to unpruned grid for atomic number  83.
 Defaulting to unpruned grid for atomic number  83.
 Generated NRdTot=       0 NPtTot=           0 NUsed=           0 NTot=          32
 NSgBfM=   501   501   501   501   501 MxSgAt=     9 MxSgA2=     9.
 Leave Link  302 at Tue Mar  6 11:57:31 2018, MaxMem=   536870912 cpu:        30.7
 (Enter /share/apps//mg09/l303.exe)
 DipDrv:  MaxL=1.
 Leave Link  303 at Tue Mar  6 11:57:46 2018, MaxMem=   536870912 cpu:         0.5
 (Enter /share/apps//mg09/l401.exe)
 ExpMin= 4.62D-02 ExpMax= 4.66D+05 ExpMxC= 4.50D+03 IAcc=2 IRadAn=         4 AccDes= 0.00D+00
 Harris functional with IExCor= 1009 and IRadAn=       4 diagonalized for initial guess.
 HarFok:  IExCor= 1009 AccDes= 0.00D+00 IRadAn=         4 IDoV= 1 UseB2=F ITyADJ=14
 ICtDFT=  3500011 ScaDFX=  1.000000  1.000000  1.000000  1.000000
 Defaulting to unpruned grid for atomic number  50.
 Defaulting to unpruned grid for atomic number  50.
 Defaulting to unpruned grid for atomic number  50.
 Defaulting to unpruned grid for atomic number  50.
 FoFCou: FMM=F IPFlag=           0 FMFlag=      100000 FMFlg1=           0
         NFxFlg=           0 DoJE=T BraDBF=F KetDBF=T FulRan=T
         wScrn=  0.000000 ICntrl=     500 IOpCl=  0 I1Cent=   200000004 NGrid=           0
         NMat0=    1 NMatS0=      1 NMatT0=    0 NMatD0=    1 NMtDS0=    0 NMtDT0=    0
 Petite list used in FoFCou.
 Harris En= -7518.62798919105    
 JPrj=0 DoOrth=F DoCkMO=F.
 Leave Link  401 at Tue Mar  6 11:57:59 2018, MaxMem=   536870912 cpu:        13.3
 (Enter /share/apps//mg09/l502.exe)
 Closed shell SCF:
 Using DIIS extrapolation, IDIIS=  1040.
 Integral symmetry usage will be decided dynamically.
 IVT=     1410107 IEndB=     1410107 NGot=   536870912 MDV=   536322046
 LenX=   536322046 LenY=   536052166
 Requested convergence on RMS density matrix=1.00D-08 within 768 cycles.
 Requested convergence on MAX density matrix=1.00D-06.
 Requested convergence on             energy=1.00D-06.
 No special actions if energy rises.
 Fock matrices will be formed incrementally for  20 cycles.

 Cycle   1  Pass 1  IDiag  1:
 FoFJK:  IHMeth= 1 ICntrl=       0 DoSepK=F KAlg= 0 I1Cent=   0 FoldK=F
 IRaf= 880000000 NMat=   1 IRICut=       1 DoRegI=T DoRafI=F ISym2E= 0.
 FoFCou: FMM=F IPFlag=           0 FMFlag=      100000 FMFlg1=           0
         NFxFlg=           0 DoJE=F BraDBF=F KetDBF=F FulRan=T
         wScrn=  0.000000 ICntrl=       0 IOpCl=  0 I1Cent=           0 NGrid=           0
         NMat0=    1 NMatS0=      1 NMatT0=    0 NMatD0=    1 NMtDS0=    0 NMtDT0=    0
 Symmetry not used in FoFCou.
 Defaulting to unpruned grid for atomic number  50.
 Defaulting to unpruned grid for atomic number  50.
 Defaulting to unpruned grid for atomic number  50.
 Defaulting to unpruned grid for atomic number  50.
 E= -7517.13986789823    
 DIIS: error= 2.78D-02 at cycle   1 NSaved=   1.
 NSaved= 1 IEnMin= 1 EnMin= -7517.13986789823     IErMin= 1 ErrMin= 2.78D-02
 ErrMax= 2.78D-02  0.00D+00 EMaxC= 1.00D-01 BMatC= 1.54D+00 BMatP= 1.54D+00
 IDIUse=3 WtCom= 7.22D-01 WtEn= 2.78D-01
 Coeff-Com:  0.100D+01
 Coeff-En:   0.100D+01
 Coeff:      0.100D+01
 Gap=     0.146 Goal=   None    Shift=    0.000
 GapD=    0.146 DampG=1.000 DampE=0.500 DampFc=0.5000 IDamp=-1.
 Damping current iteration by 5.00D-01
 RMSDP=7.01D-03 MaxDP=3.72D-01              OVMax= 8.42D-01

 Cycle   2  Pass 1  IDiag  1:
 RMSU=  3.50D-03    CP:  1.01D+00
 E= -7516.28908861216     Delta-E=        0.850779286073 Rises=F Damp=T
 DIIS: error= 2.00D-02 at cycle   2 NSaved=   2.
 NSaved= 2 IEnMin= 1 EnMin= -7517.13986789823     IErMin= 2 ErrMin= 2.00D-02
 ErrMax= 2.00D-02  0.00D+00 EMaxC= 1.00D-01 BMatC= 5.83D-01 BMatP= 1.54D+00
 IDIUse=3 WtCom= 8.00D-01 WtEn= 2.00D-01
 Coeff-Com:  0.293D+00 0.707D+00
 Coeff-En:   0.722D+00 0.278D+00
 Coeff:      0.379D+00 0.621D+00
 Gap=     0.025 Goal=   None    Shift=    0.000
 RMSDP=4.76D-03 MaxDP=2.10D-01 DE= 8.51D-01 OVMax= 8.60D-01

 Cycle   3  Pass 1  IDiag  1:
 RMSU=  3.47D-03    CP:  1.00D+00  7.21D-02
 E= -7514.81227122049     Delta-E=        1.476817391667 Rises=F Damp=F
 DIIS: error= 5.97D-02 at cycle   3 NSaved=   3.
 NSaved= 3 IEnMin= 1 EnMin= -7517.13986789823     IErMin= 2 ErrMin= 2.00D-02
 ErrMax= 5.97D-02  0.00D+00 EMaxC= 1.00D-01 BMatC= 2.33D+00 BMatP= 5.83D-01
 IDIUse=2 WtCom= 0.00D+00 WtEn= 1.00D+00
 Rare condition: small coef for last iteration:  0.000D+00
 Coeff-En:   0.558D+00 0.278D+00 0.165D+00
 Coeff:      0.558D+00 0.278D+00 0.165D+00
 Gap=     0.223 Goal=   None    Shift=    0.000
 RMSDP=5.64D-03 MaxDP=2.22D-01 DE= 1.48D+00 OVMax= 6.41D-01

 Cycle   4  Pass 1  IDiag  1:
 RMSU=  1.98D-03    CP:  1.01D+00  1.16D+00 -5.03D-02
 E= -7516.11286801287     Delta-E=       -1.300596792384 Rises=F Damp=F
 DIIS: error= 3.42D-02 at cycle   4 NSaved=   4.
 NSaved= 4 IEnMin= 1 EnMin= -7517.13986789823     IErMin= 2 ErrMin= 2.00D-02
 ErrMax= 3.42D-02  0.00D+00 EMaxC= 1.00D-01 BMatC= 1.35D+00 BMatP= 5.83D-01
 IDIUse=2 WtCom= 0.00D+00 WtEn= 1.00D+00
 EnCoef did     8 forward-backward iterations
 Coeff-En:   0.588D+00 0.000D+00 0.621D-01 0.350D+00
 Coeff:      0.588D+00 0.000D+00 0.621D-01 0.350D+00
 Gap=     0.093 Goal=   None    Shift=    0.000
 RMSDP=3.34D-03 MaxDP=1.44D-01 DE=-1.30D+00 OVMax= 4.48D-01

 Cycle   5  Pass 1  IDiag  1:
 RMSU=  1.45D-03    CP:  1.01D+00  4.29D-01  3.19D-01  5.56D-01
 E= -7517.65047836190     Delta-E=       -1.537610349031 Rises=F Damp=F
 DIIS: error= 1.03D-02 at cycle   5 NSaved=   5.
 NSaved= 5 IEnMin= 5 EnMin= -7517.65047836190     IErMin= 5 ErrMin= 1.03D-02
 ErrMax= 1.03D-02  0.00D+00 EMaxC= 1.00D-01 BMatC= 2.56D-01 BMatP= 5.83D-01
 IDIUse=3 WtCom= 8.97D-01 WtEn= 1.03D-01
 EnCoef did     4 forward-backward iterations
 Coeff-Com:  0.385D+00-0.358D+00-0.135D+00 0.356D+00 0.752D+00
 Coeff-En:   0.541D-01 0.000D+00 0.000D+00 0.909D-01 0.855D+00
 Coeff:      0.351D+00-0.321D+00-0.121D+00 0.329D+00 0.762D+00
 Gap=     0.134 Goal=   None    Shift=    0.000
 RMSDP=1.50D-03 MaxDP=6.52D-02 DE=-1.54D+00 OVMax= 1.59D-01

 Cycle   6  Pass 1  IDiag  1:
 RMSU=  7.08D-04    CP:  1.00D+00  4.35D-01  2.38D-02  6.56D-01  4.45D-01
 E= -7517.74643093459     Delta-E=       -0.095952572687 Rises=F Damp=F
 DIIS: error= 7.25D-03 at cycle   6 NSaved=   6.
 NSaved= 6 IEnMin= 6 EnMin= -7517.74643093459     IErMin= 6 ErrMin= 7.25D-03
 ErrMax= 7.25D-03  0.00D+00 EMaxC= 1.00D-01 BMatC= 6.63D-02 BMatP= 2.56D-01
 IDIUse=3 WtCom= 9.28D-01 WtEn= 7.25D-02
 Coeff-Com:  0.103D+00-0.295D-01-0.483D-01 0.167D-01 0.442D+00 0.516D+00
 Coeff-En:   0.000D+00 0.000D+00 0.000D+00 0.000D+00 0.342D+00 0.658D+00
 Coeff:      0.958D-01-0.274D-01-0.448D-01 0.155D-01 0.435D+00 0.526D+00
 Gap=     0.134 Goal=   None    Shift=    0.000
 RMSDP=8.50D-04 MaxDP=4.04D-02 DE=-9.60D-02 OVMax= 9.43D-02

 Cycle   7  Pass 1  IDiag  1:
 RMSU=  4.01D-04    CP:  1.00D+00  3.83D-01  1.06D-01  5.67D-01  7.21D-01
                    CP:  2.99D-01
 E= -7517.80016816157     Delta-E=       -0.053737226975 Rises=F Damp=F
 DIIS: error= 3.41D-03 at cycle   7 NSaved=   7.
 NSaved= 7 IEnMin= 7 EnMin= -7517.80016816157     IErMin= 7 ErrMin= 3.41D-03
 ErrMax= 3.41D-03  0.00D+00 EMaxC= 1.00D-01 BMatC= 1.43D-02 BMatP= 6.63D-02
 IDIUse=3 WtCom= 9.66D-01 WtEn= 3.41D-02
 Coeff-Com:  0.188D-01 0.110D-01-0.651D-02-0.163D-01 0.192D+00 0.390D+00
 Coeff-Com:  0.412D+00
 Coeff-En:   0.000D+00 0.000D+00 0.000D+00 0.000D+00 0.000D+00 0.242D+00
 Coeff-En:   0.758D+00
 Coeff:      0.181D-01 0.106D-01-0.629D-02-0.158D-01 0.185D+00 0.385D+00
 Coeff:      0.424D+00
 Gap=     0.129 Goal=   None    Shift=    0.000
 RMSDP=4.05D-04 MaxDP=1.55D-02 DE=-5.37D-02 OVMax= 4.59D-02

 Cycle   8  Pass 1  IDiag  1:
 RMSU=  2.00D-04    CP:  1.00D+00  3.85D-01  1.07D-01  5.74D-01  6.63D-01
                    CP:  5.77D-01  3.06D-01
 E= -7517.81368954727     Delta-E=       -0.013521385699 Rises=F Damp=F
 DIIS: error= 1.77D-03 at cycle   8 NSaved=   8.
 NSaved= 8 IEnMin= 8 EnMin= -7517.81368954727     IErMin= 8 ErrMin= 1.77D-03
 ErrMax= 1.77D-03  0.00D+00 EMaxC= 1.00D-01 BMatC= 3.07D-03 BMatP= 1.43D-02
 IDIUse=3 WtCom= 9.82D-01 WtEn= 1.77D-02
 Coeff-Com: -0.601D-03 0.991D-02 0.835D-03-0.124D-01 0.818D-01 0.225D+00
 Coeff-Com:  0.341D+00 0.354D+00
 Coeff-En:   0.000D+00 0.000D+00 0.000D+00 0.000D+00 0.000D+00 0.000D+00
 Coeff-En:   0.235D+00 0.765D+00
 Coeff:     -0.590D-03 0.974D-02 0.820D-03-0.122D-01 0.804D-01 0.221D+00
 Coeff:      0.339D+00 0.361D+00
 Gap=     0.125 Goal=   None    Shift=    0.000
 RMSDP=1.67D-04 MaxDP=7.31D-03 DE=-1.35D-02 OVMax= 1.87D-02

 Cycle   9  Pass 1  IDiag  1:
 RMSU=  5.12D-05    CP:  1.00D+00  3.90D-01  1.01D-01  5.74D-01  6.69D-01
                    CP:  5.42D-01  4.92D-01  3.31D-01
 E= -7517.81747275098     Delta-E=       -0.003783203716 Rises=F Damp=F
 DIIS: error= 4.13D-04 at cycle   9 NSaved=   9.
 NSaved= 9 IEnMin= 9 EnMin= -7517.81747275098     IErMin= 9 ErrMin= 4.13D-04
 ErrMax= 4.13D-04  0.00D+00 EMaxC= 1.00D-01 BMatC= 1.71D-04 BMatP= 3.07D-03
 IDIUse=3 WtCom= 9.96D-01 WtEn= 4.13D-03
 Coeff-Com: -0.157D-02 0.181D-02 0.312D-03-0.304D-02 0.233D-01 0.764D-01
 Coeff-Com:  0.149D+00 0.232D+00 0.522D+00
 Coeff-En:   0.000D+00 0.000D+00 0.000D+00 0.000D+00 0.000D+00 0.000D+00
 Coeff-En:   0.000D+00 0.182D-01 0.982D+00
 Coeff:     -0.156D-02 0.180D-02 0.311D-03-0.303D-02 0.232D-01 0.761D-01
 Coeff:      0.148D+00 0.231D+00 0.524D+00
 Gap=     0.125 Goal=   None    Shift=    0.000
 RMSDP=3.39D-05 MaxDP=2.32D-03 DE=-3.78D-03 OVMax= 3.43D-03

 Cycle  10  Pass 1  IDiag  1:
 RMSU=  1.74D-05    CP:  1.00D+00  3.91D-01  1.02D-01  5.77D-01  6.72D-01
                    CP:  5.45D-01  4.93D-01  4.29D-01  6.22D-01
 E= -7517.81761914237     Delta-E=       -0.000146391387 Rises=F Damp=F
 DIIS: error= 8.23D-05 at cycle  10 NSaved=  10.
 NSaved=10 IEnMin=10 EnMin= -7517.81761914237     IErMin=10 ErrMin= 8.23D-05
 ErrMax= 8.23D-05  0.00D+00 EMaxC= 1.00D-01 BMatC= 1.23D-05 BMatP= 1.71D-04
 IDIUse=1 WtCom= 1.00D+00 WtEn= 0.00D+00
 Coeff-Com: -0.859D-03 0.100D-02 0.979D-04-0.111D-02 0.458D-02 0.178D-01
 Coeff-Com:  0.449D-01 0.914D-01 0.282D+00 0.560D+00
 Coeff:     -0.859D-03 0.100D-02 0.979D-04-0.111D-02 0.458D-02 0.178D-01
 Coeff:      0.449D-01 0.914D-01 0.282D+00 0.560D+00
 Gap=     0.125 Goal=   None    Shift=    0.000
 RMSDP=1.43D-05 MaxDP=6.24D-04 DE=-1.46D-04 OVMax= 1.97D-03

 Cycle  11  Pass 1  IDiag  1:
 RMSU=  1.06D-05    CP:  1.00D+00  3.90D-01  1.03D-01  5.76D-01  6.74D-01
                    CP:  5.45D-01  4.94D-01  4.37D-01  7.05D-01  5.85D-01
 E= -7517.81762078599     Delta-E=       -0.000001643621 Rises=F Damp=F
 DIIS: error= 8.42D-05 at cycle  11 NSaved=  11.
 NSaved=11 IEnMin=11 EnMin= -7517.81762078599     IErMin=10 ErrMin= 8.23D-05
 ErrMax= 8.42D-05  0.00D+00 EMaxC= 1.00D-01 BMatC= 7.67D-06 BMatP= 1.23D-05
 IDIUse=1 WtCom= 1.00D+00 WtEn= 0.00D+00
 Coeff-Com: -0.562D-03 0.713D-03 0.105D-04-0.510D-03-0.238D-04 0.296D-02
 Coeff-Com:  0.138D-01 0.391D-01 0.151D+00 0.444D+00 0.350D+00
 Coeff:     -0.562D-03 0.713D-03 0.105D-04-0.510D-03-0.238D-04 0.296D-02
 Coeff:      0.138D-01 0.391D-01 0.151D+00 0.444D+00 0.350D+00
 Gap=     0.125 Goal=   None    Shift=    0.000
 RMSDP=9.10D-06 MaxDP=3.65D-04 DE=-1.64D-06 OVMax= 1.24D-03

 Cycle  12  Pass 1  IDiag  1:
 RMSU=  3.40D-06    CP:  1.00D+00  3.90D-01  1.02D-01  5.76D-01  6.74D-01
                    CP:  5.45D-01  4.95D-01  4.40D-01  6.95D-01  8.00D-01
                    CP:  3.07D-01
 E= -7517.81762974575     Delta-E=       -0.000008959756 Rises=F Damp=F
 DIIS: error= 2.70D-05 at cycle  12 NSaved=  12.
 NSaved=12 IEnMin=12 EnMin= -7517.81762974575     IErMin=12 ErrMin= 2.70D-05
 ErrMax= 2.70D-05  0.00D+00 EMaxC= 1.00D-01 BMatC= 1.17D-06 BMatP= 7.67D-06
 IDIUse=1 WtCom= 1.00D+00 WtEn= 0.00D+00
 Coeff-Com: -0.299D-03 0.414D-03-0.947D-05-0.114D-03-0.132D-02-0.164D-02
 Coeff-Com: -0.526D-03 0.685D-02 0.499D-01 0.207D+00 0.266D+00 0.474D+00
 Coeff:     -0.299D-03 0.414D-03-0.947D-05-0.114D-03-0.132D-02-0.164D-02
 Coeff:     -0.526D-03 0.685D-02 0.499D-01 0.207D+00 0.266D+00 0.474D+00
 Gap=     0.125 Goal=   None    Shift=    0.000
 RMSDP=2.82D-06 MaxDP=1.54D-04 DE=-8.96D-06 OVMax= 3.20D-04

 Cycle  13  Pass 1  IDiag  1:
 RMSU=  1.24D-06    CP:  1.00D+00  3.90D-01  1.02D-01  5.76D-01  6.74D-01
                    CP:  5.46D-01  4.96D-01  4.42D-01  7.03D-01  7.83D-01
                    CP:  4.76D-01  6.28D-01
 E= -7517.81763109516     Delta-E=       -0.000001349415 Rises=F Damp=F
 DIIS: error= 7.68D-06 at cycle  13 NSaved=  13.
 NSaved=13 IEnMin=13 EnMin= -7517.81763109516     IErMin=13 ErrMin= 7.68D-06
 ErrMax= 7.68D-06  0.00D+00 EMaxC= 1.00D-01 BMatC= 9.40D-08 BMatP= 1.17D-06
 IDIUse=1 WtCom= 1.00D+00 WtEn= 0.00D+00
 Coeff-Com: -0.138D-03 0.211D-03-0.151D-04-0.374D-04-0.630D-03-0.567D-03
 Coeff-Com: -0.147D-02-0.185D-02 0.712D-02 0.381D-01 0.761D-01 0.223D+00
 Coeff-Com:  0.660D+00
 Coeff:     -0.138D-03 0.211D-03-0.151D-04-0.374D-04-0.630D-03-0.567D-03
 Coeff:     -0.147D-02-0.185D-02 0.712D-02 0.381D-01 0.761D-01 0.223D+00
 Coeff:      0.660D+00
 Gap=     0.125 Goal=   None    Shift=    0.000
 RMSDP=9.04D-07 MaxDP=6.22D-05 DE=-1.35D-06 OVMax= 9.64D-05

 Cycle  14  Pass 1  IDiag  1:
 RMSU=  5.28D-07    CP:  1.00D+00  3.90D-01  1.02D-01  5.76D-01  6.74D-01
                    CP:  5.46D-01  4.96D-01  4.42D-01  7.09D-01  7.90D-01
                    CP:  4.77D-01  7.14D-01  7.76D-01
 E= -7517.81763121076     Delta-E=       -0.000000115595 Rises=F Damp=F
 DIIS: error= 2.56D-06 at cycle  14 NSaved=  14.
 NSaved=14 IEnMin=14 EnMin= -7517.81763121076     IErMin=14 ErrMin= 2.56D-06
 ErrMax= 2.56D-06  0.00D+00 EMaxC= 1.00D-01 BMatC= 1.19D-08 BMatP= 9.40D-08
 IDIUse=1 WtCom= 1.00D+00 WtEn= 0.00D+00
 Coeff-Com: -0.497D-04 0.891D-04-0.571D-05-0.170D-04-0.174D-03 0.156D-04
 Coeff-Com: -0.669D-03-0.223D-02-0.349D-02-0.860D-02-0.155D-02 0.428D-01
 Coeff-Com:  0.348D+00 0.626D+00
 Coeff:     -0.497D-04 0.891D-04-0.571D-05-0.170D-04-0.174D-03 0.156D-04
 Coeff:     -0.669D-03-0.223D-02-0.349D-02-0.860D-02-0.155D-02 0.428D-01
 Coeff:      0.348D+00 0.626D+00
 Gap=     0.125 Goal=   None    Shift=    0.000
 RMSDP=3.63D-07 MaxDP=1.85D-05 DE=-1.16D-07 OVMax= 3.79D-05

 Cycle  15  Pass 1  IDiag  1:
 RMSU=  1.86D-07    CP:  1.00D+00  3.90D-01  1.02D-01  5.76D-01  6.74D-01
                    CP:  5.46D-01  4.96D-01  4.42D-01  7.10D-01  7.96D-01
                    CP:  4.80D-01  7.25D-01  9.23D-01  7.09D-01
 E= -7517.81763122341     Delta-E=       -0.000000012653 Rises=F Damp=F
 DIIS: error= 1.28D-06 at cycle  15 NSaved=  15.
 NSaved=15 IEnMin=15 EnMin= -7517.81763122341     IErMin=15 ErrMin= 1.28D-06
 ErrMax= 1.28D-06  0.00D+00 EMaxC= 1.00D-01 BMatC= 2.11D-09 BMatP= 1.19D-08
 IDIUse=1 WtCom= 1.00D+00 WtEn= 0.00D+00
 Coeff-Com: -0.678D-05 0.118D-04-0.385D-05 0.115D-06 0.153D-04 0.151D-03
 Coeff-Com: -0.125D-04-0.875D-03-0.342D-02-0.115D-01-0.153D-01-0.198D-01
 Coeff-Com:  0.574D-01 0.345D+00 0.648D+00
 Coeff:     -0.678D-05 0.118D-04-0.385D-05 0.115D-06 0.153D-04 0.151D-03
 Coeff:     -0.125D-04-0.875D-03-0.342D-02-0.115D-01-0.153D-01-0.198D-01
 Coeff:      0.574D-01 0.345D+00 0.648D+00
 Gap=     0.125 Goal=   None    Shift=    0.000
 RMSDP=1.47D-07 MaxDP=8.53D-06 DE=-1.27D-08 OVMax= 1.50D-05

 Cycle  16  Pass 1  IDiag  1:
 RMSU=  6.02D-08    CP:  1.00D+00  3.90D-01  1.02D-01  5.76D-01  6.74D-01
                    CP:  5.46D-01  4.96D-01  4.42D-01  7.10D-01  7.98D-01
                    CP:  4.82D-01  7.33D-01  9.22D-01  8.55D-01  7.55D-01
 E= -7517.81763122593     Delta-E=       -0.000000002519 Rises=F Damp=F
 DIIS: error= 2.45D-07 at cycle  16 NSaved=  16.
 NSaved=16 IEnMin=16 EnMin= -7517.81763122593     IErMin=16 ErrMin= 2.45D-07
 ErrMax= 2.45D-07  0.00D+00 EMaxC= 1.00D-01 BMatC= 1.23D-10 BMatP= 2.11D-09
 IDIUse=1 WtCom= 1.00D+00 WtEn= 0.00D+00
 Coeff-Com: -0.192D-05 0.410D-05-0.985D-06-0.186D-06 0.173D-04 0.704D-04
 Coeff-Com:  0.703D-04-0.151D-03-0.112D-02-0.401D-02-0.633D-02-0.134D-01
 Coeff-Com: -0.655D-02 0.116D+00 0.313D+00 0.603D+00
 Coeff:     -0.192D-05 0.410D-05-0.985D-06-0.186D-06 0.173D-04 0.704D-04
 Coeff:      0.703D-04-0.151D-03-0.112D-02-0.401D-02-0.633D-02-0.134D-01
 Coeff:     -0.655D-02 0.116D+00 0.313D+00 0.603D+00
 Gap=     0.125 Goal=   None    Shift=    0.000
 RMSDP=3.59D-08 MaxDP=2.15D-06 DE=-2.52D-09 OVMax= 3.87D-06

 Cycle  17  Pass 1  IDiag  1:
 RMSU=  2.35D-08    CP:  1.00D+00  3.90D-01  1.02D-01  5.76D-01  6.74D-01
                    CP:  5.46D-01  4.96D-01  4.42D-01  7.10D-01  7.98D-01
                    CP:  4.82D-01  7.34D-01  9.29D-01  8.56D-01  7.99D-01
                    CP:  6.87D-01
 E= -7517.81763122637     Delta-E=       -0.000000000438 Rises=F Damp=F
 DIIS: error= 1.36D-07 at cycle  17 NSaved=  17.
 NSaved=17 IEnMin=17 EnMin= -7517.81763122637     IErMin=17 ErrMin= 1.36D-07
 ErrMax= 1.36D-07  0.00D+00 EMaxC= 1.00D-01 BMatC= 2.31D-11 BMatP= 1.23D-10
 IDIUse=1 WtCom= 1.00D+00 WtEn= 0.00D+00
 Coeff-Com: -0.593D-06 0.129D-05-0.470D-06 0.201D-06 0.975D-05 0.299D-04
 Coeff-Com:  0.506D-04 0.157D-04-0.330D-03-0.134D-02-0.237D-02-0.641D-02
 Coeff-Com: -0.111D-01 0.329D-01 0.118D+00 0.344D+00 0.527D+00
 Coeff:     -0.593D-06 0.129D-05-0.470D-06 0.201D-06 0.975D-05 0.299D-04
 Coeff:      0.506D-04 0.157D-04-0.330D-03-0.134D-02-0.237D-02-0.641D-02
 Coeff:     -0.111D-01 0.329D-01 0.118D+00 0.344D+00 0.527D+00
 Gap=     0.125 Goal=   None    Shift=    0.000
 RMSDP=1.54D-08 MaxDP=1.04D-06 DE=-4.38D-10 OVMax= 1.57D-06

 Cycle  18  Pass 1  IDiag  1:
 RMSU=  8.35D-09    CP:  1.00D+00  3.90D-01  1.02D-01  5.76D-01  6.74D-01
                    CP:  5.46D-01  4.96D-01  4.42D-01  7.10D-01  7.98D-01
                    CP:  4.82D-01  7.33D-01  9.30D-01  8.66D-01  8.05D-01
                    CP:  7.85D-01  6.69D-01
 E= -7517.81763122648     Delta-E=       -0.000000000118 Rises=F Damp=F
 DIIS: error= 3.56D-08 at cycle  18 NSaved=  18.
 NSaved=18 IEnMin=18 EnMin= -7517.81763122648     IErMin=18 ErrMin= 3.56D-08
 ErrMax= 3.56D-08  0.00D+00 EMaxC= 1.00D-01 BMatC= 2.52D-12 BMatP= 2.31D-11
 IDIUse=1 WtCom= 1.00D+00 WtEn= 0.00D+00
 Coeff-Com: -0.199D-06 0.286D-06-0.803D-07 0.162D-06 0.156D-05 0.237D-05
 Coeff-Com:  0.187D-04 0.586D-04 0.100D-03 0.294D-03 0.168D-03-0.621D-03
 Coeff-Com: -0.602D-02-0.773D-02 0.533D-03 0.729D-01 0.269D+00 0.671D+00
 Coeff:     -0.199D-06 0.286D-06-0.803D-07 0.162D-06 0.156D-05 0.237D-05
 Coeff:      0.187D-04 0.586D-04 0.100D-03 0.294D-03 0.168D-03-0.621D-03
 Coeff:     -0.602D-02-0.773D-02 0.533D-03 0.729D-01 0.269D+00 0.671D+00
 Gap=     0.125 Goal=   None    Shift=    0.000
 RMSDP=4.86D-09 MaxDP=2.63D-07 DE=-1.18D-10 OVMax= 5.66D-07

 SCF Done:  E(RPBE1PBE) =  -7517.81763123     A.U. after   18 cycles
            NFock= 18  Conv=0.49D-08     -V/T= 2.1285
 KE= 6.661953384519D+03 PE=-2.474899332906D+04 EE= 6.990454742067D+03
 Leave Link  502 at Tue Mar  6 12:14:49 2018, MaxMem=   536870912 cpu:      3789.4
 (Enter /share/apps//mg09/l601.exe)
 Copying SCF densities to generalized density rwf, IOpCl= 0 IROHF=0.

 **********************************************************************

            Population analysis using the SCF density.

 **********************************************************************

 Orbital symmetries:
       Occupied  (A) (A) (A) (A) (A) (A) (A) (A) (A) (A) (A) (A)
                 (A) (A) (A) (A) (A) (A) (A) (A) (A) (A) (A) (A)
                 (A) (A) (A) (A) (A) (A) (A) (A) (A) (A) (A) (A)
                 (A) (A) (A) (A) (A) (A) (A) (A) (A) (A) (A) (A)
                 (A) (A) (A) (A) (A) (A) (A) (A) (A) (A) (A) (A)
                 (A) (A) (A) (A) (A) (A) (A) (A) (A) (A) (A) (A)
                 (A) (A) (A) (A) (A) (A) (A) (A) (A) (A) (A) (A)
                 (A) (A) (A) (A) (A) (A) (A) (A) (A) (A) (A) (A)
                 (A) (A) (A) (A) (A) (A) (A) (A) (A) (A) (A) (A)
                 (A) (A) (A) (A) (A) (A) (A) (A)
       Virtual   (A) (A) (A) (A) (A) (A) (A) (A) (A) (A) (A) (A)
                 (A) (A) (A) (A) (A) (A) (A) (A) (A) (A) (A) (A)
                 (A) (A) (A) (A) (A) (A) (A) (A) (A) (A) (A) (A)
                 (A) (A) (A) (A) (A) (A) (A) (A) (A) (A) (A) (A)
                 (A) (A) (A) (A) (A) (A) (A) (A) (A) (A) (A) (A)
                 (A) (A) (A) (A) (A) (A) (A) (A) (A) (A) (A) (A)
                 (A) (A) (A) (A) (A) (A) (A) (A) (A) (A) (A) (A)
                 (A) (A) (A) (A) (A) (A) (A) (A) (A) (A) (A) (A)
                 (A) (A) (A) (A) (A) (A) (A) (A) (A) (A) (A) (A)
                 (A) (A) (A) (A) (A) (A) (A) (A) (A) (A) (A) (A)
                 (A) (A) (A) (A) (A) (A) (A) (A) (A) (A) (A) (A)
                 (A) (A) (A) (A) (A) (A) (A) (A) (A) (A) (A) (A)
                 (A) (A) (A) (A) (A) (A) (A) (A) (A) (A) (A) (A)
                 (A) (A) (A) (A) (A) (A) (A) (A) (A) (A) (A) (A)
                 (A) (A) (A) (A) (A) (A) (A) (A) (A) (A) (A) (A)
                 (A) (A) (A) (A) (A) (A) (A) (A) (A) (A) (A) (A)
                 (A) (A) (A) (A) (A) (A) (A) (A) (A) (A) (A) (A)
                 (A) (A) (A) (A) (A) (A) (A) (A) (A) (A) (A) (A)
                 (A) (A) (A) (A) (A) (A) (A) (A) (A) (A) (A) (A)
                 (A) (A) (A) (A) (A) (A) (A) (A) (A) (A) (A) (A)
                 (A) (A) (A) (A) (A) (A) (A) (A) (A) (A) (A) (A)
                 (A) (A) (A) (A) (A) (A) (A) (A) (A) (A) (A) (A)
                 (A) (A) (A) (A) (A) (A) (A) (A) (A) (A) (A) (A)
                 (A) (A) (A) (A) (A) (A) (A) (A) (A) (A) (A) (A)
                 (A) (A) (A) (A) (A) (A) (A) (A) (A) (A) (A) (A)
                 (A) (A) (A) (A) (A) (A) (A) (A) (A) (A) (A) (A)
                 (A) (A) (A) (A) (A) (A) (A) (A) (A) (A) (A) (A)
                 (A) (A) (A) (A)
 The electronic state is 1-A.
 Alpha  occ. eigenvalues -- -399.09633-399.09097-399.08930 -49.91188 -49.90665
 Alpha  occ. eigenvalues --  -49.90543 -44.39306 -44.39223 -44.39207 -44.38758
 Alpha  occ. eigenvalues --  -44.38714 -44.38693 -44.38623 -44.38600 -44.38559
 Alpha  occ. eigenvalues --   -6.27689  -6.27170  -6.27060  -6.02885  -6.02544
 Alpha  occ. eigenvalues --   -6.01746  -6.01039  -5.14069  -5.12692  -4.43242
 Alpha  occ. eigenvalues --   -4.42980  -4.42907  -4.42649  -4.42520  -4.42511
 Alpha  occ. eigenvalues --   -4.42436  -4.42422  -4.42299  -3.75174  -3.75093
 Alpha  occ. eigenvalues --   -3.74813  -3.74812  -3.74681  -3.74543  -3.74070
 Alpha  occ. eigenvalues --   -3.73949  -3.73624  -3.73383  -3.73127  -3.73007
 Alpha  occ. eigenvalues --   -3.47383  -3.47168  -3.47001  -3.45940  -3.45801
 Alpha  occ. eigenvalues --   -3.45686  -1.22676  -1.22605  -1.22533  -1.22370
 Alpha  occ. eigenvalues --   -1.22338  -1.22123  -1.22080  -1.22002  -1.21983
 Alpha  occ. eigenvalues --   -1.21956  -1.21937  -1.21865  -1.21773  -1.21743
 Alpha  occ. eigenvalues --   -1.21667  -1.09188  -1.09080  -1.08718  -1.08656
 Alpha  occ. eigenvalues --   -1.08549  -1.08508  -1.08389  -1.08252  -1.08175
 Alpha  occ. eigenvalues --   -1.08110  -1.07624  -1.07525  -1.07332  -1.07275
 Alpha  occ. eigenvalues --   -1.07229  -1.06978  -1.06883  -1.06776  -1.06638
 Alpha  occ. eigenvalues --   -1.06564  -1.03551  -1.03511  -1.03355  -1.03206
 Alpha  occ. eigenvalues --   -1.03160  -1.02108  -1.02096  -1.02049  -1.01895
 Alpha  occ. eigenvalues --   -1.01840  -0.67304  -0.61394  -0.58577  -0.57887
 Alpha  occ. eigenvalues --   -0.52515  -0.47029  -0.43813  -0.41791  -0.39761
 Alpha  occ. eigenvalues --   -0.29307  -0.27900  -0.26552  -0.25766  -0.25293
 Alpha  occ. eigenvalues --   -0.24721  -0.23148  -0.22125  -0.21527  -0.21098
 Alpha  occ. eigenvalues --   -0.20281
 Alpha virt. eigenvalues --   -0.07819  -0.07434  -0.07332  -0.07124  -0.06114
 Alpha virt. eigenvalues --   -0.05730  -0.05163  -0.04981  -0.03887  -0.03062
 Alpha virt. eigenvalues --   -0.02910  -0.01776  -0.01711   0.03887   0.05445
 Alpha virt. eigenvalues --    0.05713   0.06382   0.08101   0.08321   0.08862
 Alpha virt. eigenvalues --    0.09499   0.09686   0.09870   0.10242   0.10640
 Alpha virt. eigenvalues --    0.11280   0.11490   0.11779   0.12286   0.13258
 Alpha virt. eigenvalues --    0.13661   0.15582   0.16566   0.17126   0.17621
 Alpha virt. eigenvalues --    0.18482   0.18709   0.19354   0.19496   0.20060
 Alpha virt. eigenvalues --    0.21026   0.21127   0.22176   0.22990   0.23983
 Alpha virt. eigenvalues --    0.24482   0.25206   0.26792   0.26870   0.27848
 Alpha virt. eigenvalues --    0.29048   0.29986   0.30914   0.31047   0.31316
 Alpha virt. eigenvalues --    0.31642   0.32593   0.32792   0.33163   0.34002
 Alpha virt. eigenvalues --    0.34459   0.35775   0.36634   0.37382   0.38551
 Alpha virt. eigenvalues --    0.39110   0.40457   0.40749   0.40926   0.41529
 Alpha virt. eigenvalues --    0.42107   0.43233   0.43388   0.43889   0.44602
 Alpha virt. eigenvalues --    0.45384   0.45992   0.46398   0.46705   0.47590
 Alpha virt. eigenvalues --    0.48823   0.49172   0.50454   0.50882   0.51912
 Alpha virt. eigenvalues --    0.52430   0.53343   0.53761   0.55495   0.55882
 Alpha virt. eigenvalues --    0.57081   0.57807   0.58153   0.59248   0.59822
 Alpha virt. eigenvalues --    0.59957   0.60895   0.61357   0.61632   0.62640
 Alpha virt. eigenvalues --    0.63887   0.64366   0.64999   0.65532   0.66410
 Alpha virt. eigenvalues --    0.66742   0.67357   0.67952   0.69408   0.69998
 Alpha virt. eigenvalues --    0.70647   0.71138   0.72919   0.73711   0.74036
 Alpha virt. eigenvalues --    0.74754   0.76297   0.76859   0.77980   0.78323
 Alpha virt. eigenvalues --    0.78910   0.79445   0.80827   0.81292   0.81742
 Alpha virt. eigenvalues --    0.82013   0.82964   0.83486   0.83835   0.85083
 Alpha virt. eigenvalues --    0.85611   0.86828   0.88456   0.88671   0.90075
 Alpha virt. eigenvalues --    0.90737   0.91214   0.91734   0.92180   0.93580
 Alpha virt. eigenvalues --    0.93856   0.94704   0.95018   0.96430   0.97316
 Alpha virt. eigenvalues --    0.97824   0.98494   0.99372   1.01425   1.01818
 Alpha virt. eigenvalues --    1.02013   1.03884   1.04568   1.06059   1.07335
 Alpha virt. eigenvalues --    1.09087   1.10168   1.10461   1.10724   1.11891
 Alpha virt. eigenvalues --    1.13139   1.13840   1.15172   1.16815   1.17772
 Alpha virt. eigenvalues --    1.18829   1.19195   1.19598   1.19625   1.20300
 Alpha virt. eigenvalues --    1.20782   1.21262   1.21830   1.22636   1.23011
 Alpha virt. eigenvalues --    1.23260   1.23650   1.24299   1.24443   1.25713
 Alpha virt. eigenvalues --    1.25971   1.26072   1.26660   1.27325   1.27922
 Alpha virt. eigenvalues --    1.28508   1.29038   1.29221   1.29752   1.29926
 Alpha virt. eigenvalues --    1.30716   1.30793   1.31820   1.32449   1.33817
 Alpha virt. eigenvalues --    1.35384   1.36422   1.37583   1.38441   1.39129
 Alpha virt. eigenvalues --    1.39658   1.40570   1.41317   1.41465   1.42070
 Alpha virt. eigenvalues --    1.44929   1.45593   1.46359   1.47727   1.49500
 Alpha virt. eigenvalues --    1.50199   1.50729   1.51233   1.51726   1.52351
 Alpha virt. eigenvalues --    1.53529   1.55871   1.56849   1.57205   1.60170
 Alpha virt. eigenvalues --    1.66378   1.68449   1.69328   1.98983   2.03916
 Alpha virt. eigenvalues --    2.06828   2.07553   2.10915   2.12846   2.15927
 Alpha virt. eigenvalues --    2.15977   2.16616   2.17855   2.18231   2.19554
 Alpha virt. eigenvalues --    2.22151   2.22268   2.23228   2.24652   2.25205
 Alpha virt. eigenvalues --    2.27923   2.29040   2.30188   2.30393   2.31622
 Alpha virt. eigenvalues --    2.32350   2.34294   2.38848   2.39609   2.39712
 Alpha virt. eigenvalues --    2.40829   2.43178   2.44134   2.46599   2.49273
 Alpha virt. eigenvalues --    2.49662   2.50344   2.53873   2.54445   2.55671
 Alpha virt. eigenvalues --    2.57119   2.59262   2.60797   2.64031   2.66306
 Alpha virt. eigenvalues --    2.67821   2.69404   2.70477   2.72484   2.73066
 Alpha virt. eigenvalues --    2.76148   2.77072   2.80304   2.83287   2.85357
 Alpha virt. eigenvalues --    2.86373   2.89535   2.90280   2.93016   3.01371
 Alpha virt. eigenvalues --    3.19005   3.24478   3.30864   3.35283   3.40074
 Alpha virt. eigenvalues --    3.41889   3.94465   3.99160   4.00709   4.01591
 Alpha virt. eigenvalues --    4.02792   4.05144   4.06627   4.16536   4.20632
 Alpha virt. eigenvalues --    5.24714   5.34753   5.42689  35.35544  35.38920
 Alpha virt. eigenvalues --   35.40257  35.42498  35.44748  35.46419  35.47634
 Alpha virt. eigenvalues --   35.48072  35.52995  35.54397  35.59785  35.61375
 Alpha virt. eigenvalues --   35.83898  35.93976  36.01394  36.07225  36.18956
 Alpha virt. eigenvalues --   36.21834  36.93816  36.96712  37.02971  37.04476
 Alpha virt. eigenvalues --   37.09306  37.11726 113.57363 113.58689 120.20808
 Alpha virt. eigenvalues --  120.23240 120.24690 120.25546
          Condensed to atoms (all electrons):
               1          2          3          4          5          6
     1  Sn  21.383300  -0.018691   0.145257  -0.016954   0.154065  -0.012891
     2  Bi  -0.018691  22.265762  -0.029239   0.158504   0.072884   0.085153
     3  Ge   0.145257  -0.029239  31.502296  -0.017616   0.109827   0.077277
     4  Bi  -0.016954   0.158504  -0.017616  22.404174  -0.018988   0.112263
     5  Ge   0.154065   0.072884   0.109827  -0.018988  31.529860  -0.022636
     6  Sn  -0.012891   0.085153   0.077277   0.112263  -0.022636  21.368723
     7  Ge  -0.018710   0.186279   0.156471  -0.016305   0.146850   0.162221
     8  Bi   0.179280   0.160327  -0.018357   0.182113   0.118540  -0.020217
     9  Bi   0.176635  -0.026365   0.143098   0.196854  -0.018770   0.152950
               7          8          9
     1  Sn  -0.018710   0.179280   0.176635
     2  Bi   0.186279   0.160327  -0.026365
     3  Ge   0.156471  -0.018357   0.143098
     4  Bi  -0.016305   0.182113   0.196854
     5  Ge   0.146850   0.118540  -0.018770
     6  Sn   0.162221  -0.020217   0.152950
     7  Ge  31.582633  -0.017178  -0.015385
     8  Bi  -0.017178  22.425353  -0.027672
     9  Bi  -0.015385  -0.027672  22.416152
 Mulliken charges:
               1
     1  Sn   0.028707
     2  Bi   0.145386
     3  Ge  -0.069013
     4  Bi   0.015955
     5  Ge  -0.071632
     6  Sn   0.097158
     7  Ge  -0.166875
     8  Bi   0.017812
     9  Bi   0.002503
 Sum of Mulliken charges =   0.00000
 Mulliken charges with hydrogens summed into heavy atoms:
               1
     1  Sn   0.028707
     2  Bi   0.145386
     3  Ge  -0.069013
     4  Bi   0.015955
     5  Ge  -0.071632
     6  Sn   0.097158
     7  Ge  -0.166875
     8  Bi   0.017812
     9  Bi   0.002503
 Electronic spatial extent (au):  <R**2>=           6238.0110
 Charge=              0.0000 electrons
 Dipole moment (field-independent basis, Debye):
    X=             -0.6487    Y=             -0.2069    Z=             -2.4742  Tot=              2.5662
 Quadrupole moment (field-independent basis, Debye-Ang):
   XX=           -216.8376   YY=           -217.6070   ZZ=           -221.3638
   XY=              0.3543   XZ=             -0.0387   YZ=             -0.4060
 Traceless Quadrupole moment (field-independent basis, Debye-Ang):
   XX=              1.7652   YY=              0.9959   ZZ=             -2.7610
   XY=              0.3543   XZ=             -0.0387   YZ=             -0.4060
 Octapole moment (field-independent basis, Debye-Ang**2):
  XXX=            -44.5547  YYY=             19.5564  ZZZ=           -172.6583  XYY=            -18.9178
  XXY=              1.9988  XXZ=            -54.7993  XZZ=            -11.8459  YZZ=              9.3858
  YYZ=            -54.2370  XYZ=             -0.7491
 Hexadecapole moment (field-independent basis, Debye-Ang**3):
 XXXX=          -3276.1722 YYYY=          -3327.3662 ZZZZ=          -3075.9098 XXXY=             26.9118
 XXXZ=            -29.3877 YYYX=            -32.2626 YYYZ=            -16.0419 ZZZX=            -19.6467
 ZZZY=              6.1171 XXYY=          -1097.1960 XXZZ=          -1086.9158 YYZZ=          -1091.5134
 XXYZ=             -5.6946 YYXZ=              6.0090 ZZXY=             -7.6452
 N-N= 3.578767571248D+03 E-N=-2.474899328956D+04  KE= 6.661953384519D+03
 No NMR shielding tensors so no spin-rotation constants.
 Leave Link  601 at Tue Mar  6 12:14:49 2018, MaxMem=   536870912 cpu:         1.7
 (Enter /share/apps//mg09/l701.exe)
 Compute integral first derivatives.
 ... and contract with generalized density number  0.
   1 Symmetry operations used in ECPInt.
 ECPInt:  NShTT=   10440 NPrTT=   41973 LenC2=    9692 LenP2D=   27435.
 LDataN:  DoStor=T MaxTD1= 9 Len=  602
 Leave Link  701 at Tue Mar  6 12:15:18 2018, MaxMem=   536870912 cpu:        98.1
 (Enter /share/apps//mg09/l702.exe)
 L702 exits ... SP integral derivatives will be done elsewhere.
 Leave Link  702 at Tue Mar  6 12:15:18 2018, MaxMem=   536870912 cpu:         0.1
 (Enter /share/apps//mg09/l703.exe)
 Compute integral first derivatives, UseDBF=F ICtDFT=           0.
 Integral derivatives from FoFJK, PRISM(SPDF).
 Calling FoFJK, ICntrl=      2127 FMM=F ISym2X=0 I1Cent= 0 IOpClX= 0 NMat=1 NMatS=1 NMatT=0.
 FoFJK:  IHMeth= 1 ICntrl=    2127 DoSepK=F KAlg= 0 I1Cent=   0 FoldK=F
 IRaf=         0 NMat=   1 IRICut=       1 DoRegI=T DoRafI=F ISym2E= 0.
 FoFCou: FMM=F IPFlag=           0 FMFlag=      100000 FMFlg1=         800
         NFxFlg=           0 DoJE=F BraDBF=F KetDBF=F FulRan=T
         wScrn=  0.000000 ICntrl=    2127 IOpCl=  0 I1Cent=           0 NGrid=           0
         NMat0=    1 NMatS0=      1 NMatT0=    0 NMatD0=    1 NMtDS0=    0 NMtDT0=    0
 Symmetry not used in FoFCou.
 Defaulting to unpruned grid for atomic number  50.
 Defaulting to unpruned grid for atomic number  50.
 Defaulting to unpruned grid for atomic number  50.
 Defaulting to unpruned grid for atomic number  50.
 Leave Link  703 at Tue Mar  6 12:19:03 2018, MaxMem=   536870912 cpu:       841.6
 (Enter /share/apps//mg09/l716.exe)
 Dipole        =-2.55234709D-01-8.14145732D-02-9.73422041D-01
 ***** Axes restored to original set *****
 -------------------------------------------------------------------
 Center     Atomic                   Forces (Hartrees/Bohr)
 Number     Number              X              Y              Z
 -------------------------------------------------------------------
      1       50          -0.005378471   -0.012618947    0.002102012
      2       83           0.008362106    0.002538814    0.004238433
      3       32          -0.014405207    0.000723953   -0.009382298
      4       83           0.000664904    0.000388461    0.006750766
      5       32           0.011099791   -0.008677585   -0.008052788
      6       50          -0.003838299    0.011388045    0.005621292
      7       32           0.006283901    0.012309454   -0.010499963
      8       83           0.004224689   -0.004954620    0.004045829
      9       83          -0.007013415   -0.001097575    0.005176717
 -------------------------------------------------------------------
 Cartesian Forces:  Max     0.014405207 RMS     0.007467793
 Force constants in Cartesian coordinates: 
                1             2             3             4             5 
      1  0.128668D+00
      2  0.206579D-01  0.165640D+00
      3  0.161517D-02  0.245785D-02  0.970931D-01
      4 -0.449596D-03 -0.935117D-02 -0.239654D-02  0.202847D+00
      5 -0.742715D-03 -0.810842D-03 -0.229221D-02  0.320168D-01  0.152805D+00
      6  0.688609D-03 -0.122464D-02  0.610523D-02  0.255658D-01 -0.846694D-02
      7 -0.292759D-01 -0.117756D-01 -0.498780D-02 -0.636302D-02 -0.539889D-02
      8  0.173306D-01 -0.498376D-01  0.290157D-01 -0.171549D-02  0.657906D-02
      9 -0.145450D-01  0.167835D-02 -0.315807D-01 -0.110654D-01 -0.304936D-02
     10  0.568719D-02 -0.414467D-02 -0.178834D-02 -0.425685D-01 -0.756532D-02
     11 -0.411648D-02 -0.173554D-02 -0.401871D-02 -0.104442D-01 -0.173125D-01
     12 -0.140977D-02 -0.324754D-02 -0.365345D-02 -0.448735D-02 -0.722259D-03
     13 -0.433291D-01  0.407533D-02  0.254577D-01 -0.307975D-01 -0.198172D-01
     14 -0.246307D-01 -0.366525D-01  0.171854D-01  0.353658D-02 -0.304081D-01
     15  0.117535D-01 -0.960011D-02 -0.324326D-01  0.118352D-01 -0.142731D-01
     16  0.452139D-02  0.385656D-02 -0.579443D-04 -0.413948D-01  0.242382D-01
     17 -0.451460D-02 -0.525071D-02 -0.318323D-02 -0.110854D-01 -0.297982D-01
     18 -0.140619D-02 -0.397205D-03  0.635249D-02 -0.615332D-02  0.215900D-03
     19  0.877241D-02 -0.574915D-02 -0.357338D-03 -0.468361D-01  0.118847D-01
     20 -0.588067D-02 -0.218443D-02 -0.522650D-03 -0.103669D-01 -0.291848D-01
     21  0.243638D-02  0.591410D-02  0.335355D-02 -0.831781D-02  0.248162D-01
     22 -0.444966D-01  0.101866D-01 -0.239098D-01 -0.290977D-01 -0.285603D-01
     23 -0.194623D-01 -0.287235D-01 -0.130163D-01  0.701520D-02 -0.555628D-01
     24 -0.111033D-01  0.693704D-02 -0.229050D-01 -0.967805D-02  0.301780D-02
     25 -0.300975D-01 -0.775576D-02  0.642486D-02 -0.533991D-02 -0.605522D-02
     26  0.213589D-01 -0.404450D-01 -0.256258D-01  0.394683D-03  0.369302D-02
     27  0.119707D-01 -0.251784D-02 -0.223325D-01  0.469758D-02  0.753987D-03
                6             7             8             9            10 
      6  0.160997D+00
      7 -0.369335D-02  0.196354D+00
      8  0.828572D-03  0.664522D-02  0.158054D+00
      9  0.265314D-02  0.301357D-01 -0.147244D-01  0.208332D+00
     10  0.299917D-01  0.370697D-02  0.161831D-02  0.142746D-03  0.112818D+00
     11  0.144105D-01 -0.787050D-03  0.441508D-02 -0.321277D-02 -0.885130D-02
     12 -0.406758D-01 -0.788944D-02  0.197015D-02 -0.503866D-02  0.124532D-02
     13 -0.155593D-01 -0.511914D-01  0.193716D-01  0.160299D-01  0.373600D-02
     14 -0.197635D-01  0.565616D-02 -0.277117D-01 -0.105751D-01 -0.599283D-03
     15 -0.352818D-01 -0.180039D-01  0.426125D-02 -0.370104D-01 -0.254554D-02
     16  0.468845D-02 -0.213754D-01 -0.103542D-01 -0.170623D-01 -0.169963D-01
     17 -0.453196D-02  0.133400D-01 -0.337142D-01  0.329370D-02  0.976396D-02
     18 -0.118487D-01 -0.231848D-02 -0.206418D-01 -0.295247D-01 -0.966065D-02
     19 -0.418266D-01 -0.586491D-01 -0.314772D-01  0.148010D-01  0.780010D-02
     20  0.423689D-02 -0.769941D-02 -0.398540D-01  0.157950D-01 -0.193277D-02
     21 -0.654771D-01 -0.186842D-01 -0.504652D-02 -0.360237D-01 -0.569237D-03
     22  0.137512D-02  0.633427D-03  0.157098D-02 -0.774423D-02 -0.258229D-01
     23  0.161728D-01  0.622274D-02  0.254728D-02  0.636265D-02  0.140779D-01
     24 -0.213355D-01 -0.266844D-02 -0.115897D-02  0.113557D-02  0.127186D-01
     25 -0.123041D-02 -0.338400D-01 -0.298975D-02 -0.106924D-01 -0.483602D-01
     26 -0.166172D-02 -0.620318D-02 -0.204777D-01  0.443190D-02 -0.236680D-02
     27  0.486367D-02  0.281099D-01  0.549602D-02 -0.729419D-01 -0.295346D-01
               11            12            13            14            15 
     11  0.961184D-01
     12  0.392226D-02  0.164303D+00
     13  0.184282D-02  0.659150D-02  0.166893D+00
     14  0.469186D-02 -0.417014D-02 -0.163298D-01  0.185587D+00
     15 -0.222395D-02 -0.504733D-02 -0.318108D-01  0.174372D-01  0.207795D+00
     16  0.133290D-01  0.314556D-02  0.472428D-02  0.427485D-02  0.512584D-02
     17 -0.365208D-01 -0.643749D-02  0.777509D-02 -0.345696D-02 -0.958409D-02
     18  0.290275D-01 -0.355115D-01  0.321879D-02 -0.217929D-02  0.295773D-02
     19 -0.206937D-02  0.253168D-02 -0.278669D-01  0.197511D-01  0.244825D-02
     20  0.355530D-02  0.559871D-02 -0.411960D-02 -0.671552D-01  0.214965D-01
     21 -0.893609D-03 -0.527333D-02  0.987066D-02 -0.181066D-01 -0.358558D-01
     22  0.173056D-01 -0.458907D-02 -0.201835D-01  0.489660D-02  0.111387D-01
     23 -0.370591D-01  0.375289D-02  0.835421D-02 -0.303183D-01 -0.596281D-02
     24 -0.278947D-01 -0.345200D-01 -0.149033D-01  0.230797D-01 -0.661057D-01
     25 -0.620899D-02  0.486157D-02 -0.198511D-02  0.344443D-02  0.100588D-01
     26 -0.161526D-01 -0.666572D-03 -0.115245D-02  0.542431D-02 -0.155081D-02
     27 -0.911648D-02 -0.345827D-01  0.110491D-02 -0.290764D-02  0.980538D-03
               16            17            18            19            20 
     16  0.129444D+00
     17 -0.222188D-01  0.202209D+00
     18 -0.163325D-01  0.691584D-02  0.131484D+00
     19 -0.297703D-01 -0.471254D-02  0.220856D-01  0.142793D+00
     20  0.177164D-01 -0.357725D-01 -0.237546D-01  0.110576D-01  0.164658D+00
     21  0.140731D-01  0.151910D-01 -0.476794D-01 -0.489607D-02 -0.350861D-01
     22  0.263883D-02  0.742880D-02 -0.386173D-03  0.396075D-02  0.477041D-02
     23  0.937982D-03 -0.348260D-02 -0.204899D-02  0.453084D-03  0.975047D-03
     24 -0.247602D-02  0.351359D-02  0.500994D-02  0.220659D-02  0.634910D-02
     25 -0.317916D-01  0.422354D-02  0.109529D-01 -0.203569D-03 -0.354510D-02
     26 -0.317800D-01 -0.542135D-01  0.128626D-01  0.861730D-03  0.496270D-02
     27  0.889578D-02 -0.517736D-02 -0.212393D-01  0.300688D-02  0.588709D-02
               21            22            23            24            25 
     21  0.181244D+00
     22 -0.198912D-02  0.118122D+00
     23  0.867858D-02 -0.218850D-01  0.149673D+00
     24  0.301151D-02  0.245748D-01 -0.171475D-01  0.131732D+00
     25  0.807629D-02 -0.575394D-02  0.428621D-02  0.132912D-02  0.157372D+00
     26  0.453292D-02  0.428646D-02  0.195094D-02  0.330394D-02  0.146006D-01
     27  0.269994D-02  0.152969D-02  0.320875D-02  0.397762D-02 -0.297808D-01
               26            27 
     26  0.115258D+00
     27  0.437347D-02  0.138575D+00
 Leave Link  716 at Tue Mar  6 12:19:03 2018, MaxMem=   536870912 cpu:         0.1
 (Enter /share/apps//mg09/l103.exe)

 GradGradGradGradGradGradGradGradGradGradGradGradGradGradGradGradGradGrad
 Berny optimization.
 Search for a local minimum.
 Step number   1 out of a maximum of  100
 All quantities printed in internal units (Hartrees-Bohrs-Radians)
 Second derivative matrix not updated -- first step.
 ITU=  0
     Eigenvalues ---    0.07662   0.11859   0.12305   0.12835   0.13007
     Eigenvalues ---    0.13309   0.14817   0.15213   0.15985   0.16431
     Eigenvalues ---    0.18286   0.21221   0.22021   0.23706   0.23916
     Eigenvalues ---    0.25477   0.26149   0.28850   0.29564   0.30945
     Eigenvalues ---    0.31744
 RFO step:  Lambda=-8.84283744D-03 EMin= 7.66167215D-02
 Linear search not attempted -- first point.
 TrRot=  0.000478  0.000541 -0.002976  0.211999  0.000097 -0.211994
 Variable       Old X    -DE/DX   Delta X   Delta X   Delta X     New X
                                 (Linear)    (Quad)   (Total)
    X1        2.14213  -0.00538   0.00000  -0.03553  -0.03491   2.10722
    Y1        4.53750  -0.01262   0.00000  -0.08686  -0.08627   4.45122
    Z1        1.74835   0.00210   0.00000   0.00940   0.00613   1.75448
    X2       -3.98511   0.00836   0.00000   0.05369   0.05420  -3.93092
    Y2       -2.05295   0.00254   0.00000   0.02186   0.02239  -2.03056
    Z2        0.14875   0.00424   0.00000   0.01630   0.01374   0.16249
    X3        3.03091  -0.01441   0.00000  -0.06922  -0.06835   2.96256
    Y3       -0.35478   0.00072   0.00000   0.00215   0.00279  -0.35199
    Z3        4.16789  -0.00938   0.00000  -0.04782  -0.05107   4.11682
    X4       -0.17126   0.00066   0.00000   0.00478   0.00488  -0.16639
    Y4       -0.74333   0.00039   0.00000   0.00633   0.00678  -0.73655
    Z4       -4.08269   0.00675   0.00000   0.05436   0.05141  -4.03128
    X5       -1.94379   0.01110   0.00000   0.05330   0.05417  -1.88962
    Y5        1.84848  -0.00868   0.00000  -0.04486  -0.04424   1.80424
    Z5        4.25773  -0.00805   0.00000  -0.04273  -0.04557   4.21216
    X6        1.68317  -0.00384   0.00000  -0.02549  -0.02497   1.65819
    Y6       -4.66970   0.01139   0.00000   0.07226   0.07281  -4.59689
    Z6        0.10819   0.00562   0.00000   0.03307   0.03003   0.13823
    X7       -1.17603   0.00628   0.00000   0.03708   0.03800  -1.13802
    Y7       -3.25583   0.01231   0.00000   0.06910   0.06973  -3.18610
    Z7        4.58498  -0.01050   0.00000  -0.05406  -0.05687   4.52812
    X8       -2.77530   0.00422   0.00000   0.03633   0.03669  -2.73861
    Y8        3.45288  -0.00495   0.00000  -0.04217  -0.04166   3.41122
    Z8       -1.10062   0.00405   0.00000   0.02623   0.02344  -1.07718
    X9        4.66155  -0.00701   0.00000  -0.06008  -0.05970   4.60185
    Y9        0.10241  -0.00110   0.00000  -0.00287  -0.00233   0.10008
    Z9       -1.09996   0.00518   0.00000   0.03215   0.02874  -1.07123
         Item               Value     Threshold  Converged?
 Maximum Force            0.014405     0.000450     NO 
 RMS     Force            0.007468     0.000300     NO 
 Maximum Displacement     0.086274     0.001800     NO 
 RMS     Displacement     0.044593     0.001200     NO 
 Predicted change in Energy=-4.659058D-03
 Lowest energy point so far.  Saving SCF results.
 GradGradGradGradGradGradGradGradGradGradGradGradGradGradGradGradGradGrad

 Leave Link  103 at Tue Mar  6 12:19:03 2018, MaxMem=   536870912 cpu:         0.1
 (Enter /share/apps//mg09/l202.exe)
                          Input orientation:                          
 ---------------------------------------------------------------------
 Center     Atomic      Atomic             Coordinates (Angstroms)
 Number     Number       Type             X           Y           Z
 ---------------------------------------------------------------------
      1         50           0        1.115094    2.355486    0.928433
      2         83           0       -2.080152   -1.074526    0.085984
      3         32           0        1.567720   -0.186267    2.178527
      4         83           0       -0.088049   -0.389763   -2.133262
      5         32           0       -0.999944    0.954762    2.228982
      6         50           0        0.877479   -2.432568    0.073146
      7         32           0       -0.602216   -1.686011    2.396177
      8         83           0       -1.449209    1.805142   -0.570020
      9         83           0        2.435195    0.052960   -0.566868
 ---------------------------------------------------------------------
                    Distance matrix (angstroms):
                    1          2          3          4          5
     1  Sn   0.000000
     2  Bi   4.762804   0.000000
     3  Ge   2.868468   4.298221   0.000000
     4  Bi   4.284615   3.059808   4.623257   0.000000
     5  Ge   2.850761   3.142817   2.810230   4.654940   0.000000
     6  Sn   4.869644   3.254538   3.155143   3.158089   4.432420
     7  Ge   4.630024   2.809839   2.646739   4.739244   2.675785
     8  Bi   3.020578   3.020086   4.541154   3.018956   2.959627
     9  Bi   3.046345   4.699553   2.889106   3.002724   4.519978
                    6          7          8          9
     6  Sn   0.000000
     7  Ge   2.853650   0.000000
     8  Bi   4.877020   4.658741   0.000000
     9  Bi   3.002323   4.585795   4.261308   0.000000
 Stoichiometry    Bi4Ge3Sn2
 Framework group  C1[X(Bi4Ge3Sn2)]
 Deg. of freedom    21
 Full point group                 C1      NOp   1
 RotChk:  IX=0 Diff= 1.08D-02
 Largest Abelian subgroup         C1      NOp   1
 Largest concise Abelian subgroup C1      NOp   1
                         Standard orientation:                         
 ---------------------------------------------------------------------
 Center     Atomic      Atomic             Coordinates (Angstroms)
 Number     Number       Type             X           Y           Z
 ---------------------------------------------------------------------
      1         50           0        1.107696    2.359642    0.921707
      2         83           0       -2.075177   -1.083925    0.087765
      3         32           0        1.579452   -0.182942    2.163005
      4         83           0       -0.098363   -0.383899   -2.140372
      5         32           0       -0.993463    0.945335    2.230029
      6         50           0        0.888958   -2.427390    0.055731
      7         32           0       -0.581916   -1.693858    2.388493
      8         83           0       -1.461867    1.800421   -0.564398
      9         83           0        2.431033    0.067334   -0.586378
 ---------------------------------------------------------------------
 Rotational constants (GHZ):      0.1027754      0.0929925      0.0888157
 Leave Link  202 at Tue Mar  6 12:19:04 2018, MaxMem=   536870912 cpu:         0.0
 (Enter /share/apps//mg09/l301.exe)
 Standard basis: def2TZVP (5D, 7F)
 Ernie: Thresh=  0.10000D-02 Tol=  0.10000D-05 Strict=F.
 There are   519 symmetry adapted cartesian basis functions of A   symmetry.
 There are   444 symmetry adapted basis functions of A   symmetry.
   444 basis functions,   963 primitive gaussians,   519 cartesian basis functions
   116 alpha electrons      116 beta electrons
       nuclear repulsion energy      3638.2593544400 Hartrees.
 IExCor= 1009 DFT=T Ex+Corr=PBE1PBE ExCW=0 ScaHFX=  0.250000
 ScaDFX=  0.750000  0.750000  1.000000  1.000000 ScalE2=  1.000000  1.000000
 IRadAn=      0 IRanWt=     -1 IRanGd=            0 ICorTp=0 IEmpDi=  4
 NAtoms=    9 NActive=    9 NUniq=    9 SFac= 1.00D+00 NAtFMM=   60 NAOKFM=F Big=F
 Integral buffers will be    131072 words long.
 Raffenetti 2 integral format.
 Two-electron integral symmetry is turned on.
 Leave Link  301 at Tue Mar  6 12:19:05 2018, MaxMem=   536870912 cpu:         0.2
 (Enter /share/apps//mg09/l302.exe)
 NPDir=0 NMtPBC=     1 NCelOv=     1 NCel=       1 NClECP=     1 NCelD=      1
         NCelK=      1 NCelE2=     1 NClLst=     1 CellRange=     0.0.
 One-electron integrals computed using PRISM.
   1 Symmetry operations used in ECPInt.
 ECPInt:  NShTT=   10440 NPrTT=   41973 LenC2=    9714 LenP2D=   27619.
 LDataN:  DoStor=T MaxTD1= 8 Len=  415
 NBasis=   444 RedAO= T EigKep=  1.10D-03  NBF=   444
 NBsUse=   444 1.00D-06 EigRej= -1.00D+00 NBFU=   444
 Precomputing XC quadrature grid using
 IXCGrd= 4 IRadAn=           0 IRanWt=          -1 IRanGd=           0 AccXCQ= 0.00D+00.
 Defaulting to unpruned grid for atomic number  50.
 Defaulting to unpruned grid for atomic number  83.
 Defaulting to unpruned grid for atomic number  83.
 Generated NRdTot=       0 NPtTot=           0 NUsed=           0 NTot=          32
 NSgBfM=   501   501   501   505   505 MxSgAt=     9 MxSgA2=     9.
 Leave Link  302 at Tue Mar  6 12:19:15 2018, MaxMem=   536870912 cpu:        36.0
 (Enter /share/apps//mg09/l303.exe)
 DipDrv:  MaxL=1.
 Leave Link  303 at Tue Mar  6 12:19:15 2018, MaxMem=   536870912 cpu:         0.5
 (Enter /share/apps//mg09/l401.exe)
 Initial guess from the checkpoint file:  "Isomer_20.chk"
 B after Tr=     0.000000    0.000000    0.000000
         Rot=    0.999993   -0.001258   -0.002557   -0.002456 Ang=  -0.43 deg.
 Guess basis will be translated and rotated to current coordinates.
 JPrj=2 DoOrth=T DoCkMO=T.
 Generating alternative initial guess.
 ExpMin= 4.62D-02 ExpMax= 4.66D+05 ExpMxC= 4.50D+03 IAcc=2 IRadAn=         4 AccDes= 0.00D+00
 Harris functional with IExCor= 1009 and IRadAn=       4 diagonalized for initial guess.
 HarFok:  IExCor= 1009 AccDes= 0.00D+00 IRadAn=         4 IDoV= 1 UseB2=F ITyADJ=14
 ICtDFT=  3500011 ScaDFX=  1.000000  1.000000  1.000000  1.000000
 Defaulting to unpruned grid for atomic number  50.
 Defaulting to unpruned grid for atomic number  50.
 Defaulting to unpruned grid for atomic number  50.
 Defaulting to unpruned grid for atomic number  50.
 FoFCou: FMM=F IPFlag=           0 FMFlag=      100000 FMFlg1=           0
         NFxFlg=           0 DoJE=T BraDBF=F KetDBF=T FulRan=T
         wScrn=  0.000000 ICntrl=     500 IOpCl=  0 I1Cent=   200000004 NGrid=           0
         NMat0=    1 NMatS0=      1 NMatT0=    0 NMatD0=    1 NMtDS0=    0 NMtDT0=    0
 Petite list used in FoFCou.
 Harris En= -7518.64231880722    
 Leave Link  401 at Tue Mar  6 12:19:18 2018, MaxMem=   536870912 cpu:        13.4
 (Enter /share/apps//mg09/l502.exe)
 Closed shell SCF:
 Using DIIS extrapolation, IDIIS=  1040.
 Integral symmetry usage will be decided dynamically.
 IVT=     1410107 IEndB=     1410107 NGot=   536870912 MDV=   536322046
 LenX=   536322046 LenY=   536052166
 Requested convergence on RMS density matrix=1.00D-08 within 768 cycles.
 Requested convergence on MAX density matrix=1.00D-06.
 Requested convergence on             energy=1.00D-06.
 No special actions if energy rises.
 Fock matrices will be formed incrementally for  20 cycles.

 Cycle   1  Pass 1  IDiag  1:
 FoFJK:  IHMeth= 1 ICntrl=       0 DoSepK=F KAlg= 0 I1Cent=   0 FoldK=F
 IRaf= 880000000 NMat=   1 IRICut=       1 DoRegI=T DoRafI=F ISym2E= 0.
 FoFCou: FMM=F IPFlag=           0 FMFlag=      100000 FMFlg1=           0
         NFxFlg=           0 DoJE=F BraDBF=F KetDBF=F FulRan=T
         wScrn=  0.000000 ICntrl=       0 IOpCl=  0 I1Cent=           0 NGrid=           0
         NMat0=    1 NMatS0=      1 NMatT0=    0 NMatD0=    1 NMtDS0=    0 NMtDT0=    0
 Symmetry not used in FoFCou.
 Defaulting to unpruned grid for atomic number  50.
 Defaulting to unpruned grid for atomic number  50.
 Defaulting to unpruned grid for atomic number  50.
 Defaulting to unpruned grid for atomic number  50.
 E= -7517.82254275936    
 DIIS: error= 5.25D-03 at cycle   1 NSaved=   1.
 NSaved= 1 IEnMin= 1 EnMin= -7517.82254275936     IErMin= 1 ErrMin= 5.25D-03
 ErrMax= 5.25D-03  0.00D+00 EMaxC= 1.00D-01 BMatC= 7.89D-03 BMatP= 7.89D-03
 IDIUse=3 WtCom= 9.47D-01 WtEn= 5.25D-02
 Coeff-Com:  0.100D+01
 Coeff-En:   0.100D+01
 Coeff:      0.100D+01
 Gap=     7.226 Goal=   None    Shift=    0.000
 GapD=    7.226 DampG=2.000 DampE=1.000 DampFc=2.0000 IDamp=-1.
 RMSDP=1.83D-04 MaxDP=3.89D-03              OVMax= 1.99D-02

 Cycle   2  Pass 1  IDiag  1:
 RMSU=  1.83D-04    CP:  1.00D+00
 E= -7517.82246250032     Delta-E=        0.000080259040 Rises=F Damp=F
 DIIS: error= 1.79D-03 at cycle   2 NSaved=   2.
 NSaved= 2 IEnMin= 1 EnMin= -7517.82254275936     IErMin= 2 ErrMin= 1.79D-03
 ErrMax= 1.79D-03  0.00D+00 EMaxC= 1.00D-01 BMatC= 1.74D-03 BMatP= 7.89D-03
 IDIUse=3 WtCom= 9.82D-01 WtEn= 1.79D-02
 Coeff-Com:  0.221D+00 0.779D+00
 Coeff-En:   0.519D+00 0.481D+00
 Coeff:      0.226D+00 0.774D+00
 Gap=     0.126 Goal=   None    Shift=    0.000
 RMSDP=2.31D-04 MaxDP=9.65D-03 DE= 8.03D-05 OVMax= 2.00D-02

 Cycle   3  Pass 1  IDiag  1:
 RMSU=  2.14D-04    CP:  9.99D-01  5.42D-01
 E= -7517.81964653360     Delta-E=        0.002815966716 Rises=F Damp=F
 DIIS: error= 2.48D-03 at cycle   3 NSaved=   3.
 NSaved= 3 IEnMin= 1 EnMin= -7517.82254275936     IErMin= 2 ErrMin= 1.79D-03
 ErrMax= 2.48D-03  0.00D+00 EMaxC= 1.00D-01 BMatC= 4.44D-03 BMatP= 1.74D-03
 IDIUse=3 WtCom= 1.67D-01 WtEn= 8.33D-01
 Coeff-Com:  0.149D-01 0.611D+00 0.374D+00
 Coeff-En:   0.000D+00 0.684D+00 0.316D+00
 Coeff:      0.249D-02 0.672D+00 0.326D+00
 Gap=     0.128 Goal=   None    Shift=    0.000
 RMSDP=1.40D-04 MaxDP=4.96D-03 DE= 2.82D-03 OVMax= 1.51D-02

 Cycle   4  Pass 1  IDiag  1:
 RMSU=  6.15D-05    CP:  9.99D-01  7.93D-01  4.56D-01
 E= -7517.82363648983     Delta-E=       -0.003989956227 Rises=F Damp=F
 DIIS: error= 7.47D-04 at cycle   4 NSaved=   4.
 NSaved= 4 IEnMin= 4 EnMin= -7517.82363648983     IErMin= 4 ErrMin= 7.47D-04
 ErrMax= 7.47D-04  0.00D+00 EMaxC= 1.00D-01 BMatC= 3.97D-04 BMatP= 1.74D-03
 IDIUse=3 WtCom= 9.93D-01 WtEn= 7.47D-03
 Coeff-Com:  0.442D-03 0.450D+00 0.230D+00 0.319D+00
 Coeff-En:   0.000D+00 0.153D+00 0.000D+00 0.847D+00
 Coeff:      0.438D-03 0.448D+00 0.229D+00 0.323D+00
 Gap=     0.128 Goal=   None    Shift=    0.000
 RMSDP=4.98D-05 MaxDP=2.44D-03 DE=-3.99D-03 OVMax= 4.71D-03

 Cycle   5  Pass 1  IDiag  1:
 RMSU=  1.45D-05    CP:  9.99D-01  8.62D-01  4.26D-01  2.71D-01
 E= -7517.82396955702     Delta-E=       -0.000333067184 Rises=F Damp=F
 DIIS: error= 9.66D-05 at cycle   5 NSaved=   5.
 NSaved= 5 IEnMin= 5 EnMin= -7517.82396955702     IErMin= 5 ErrMin= 9.66D-05
 ErrMax= 9.66D-05  0.00D+00 EMaxC= 1.00D-01 BMatC= 1.53D-05 BMatP= 3.97D-04
 IDIUse=1 WtCom= 1.00D+00 WtEn= 0.00D+00
 Coeff-Com: -0.115D-02 0.222D+00 0.105D+00 0.213D+00 0.461D+00
 Coeff:     -0.115D-02 0.222D+00 0.105D+00 0.213D+00 0.461D+00
 Gap=     0.128 Goal=   None    Shift=    0.000
 RMSDP=1.00D-05 MaxDP=5.60D-04 DE=-3.33D-04 OVMax= 1.09D-03

 Cycle   6  Pass 1  IDiag  1:
 RMSU=  4.09D-06    CP:  9.99D-01  8.71D-01  4.15D-01  3.79D-01  6.51D-01
 E= -7517.82398370309     Delta-E=       -0.000014146079 Rises=F Damp=F
 DIIS: error= 2.09D-05 at cycle   6 NSaved=   6.
 NSaved= 6 IEnMin= 6 EnMin= -7517.82398370309     IErMin= 6 ErrMin= 2.09D-05
 ErrMax= 2.09D-05  0.00D+00 EMaxC= 1.00D-01 BMatC= 5.39D-07 BMatP= 1.53D-05
 IDIUse=1 WtCom= 1.00D+00 WtEn= 0.00D+00
 Coeff-Com: -0.579D-03 0.857D-01 0.418D-01 0.875D-01 0.232D+00 0.553D+00
 Coeff:     -0.579D-03 0.857D-01 0.418D-01 0.875D-01 0.232D+00 0.553D+00
 Gap=     0.128 Goal=   None    Shift=    0.000
 RMSDP=3.62D-06 MaxDP=1.45D-04 DE=-1.41D-05 OVMax= 4.12D-04

 Cycle   7  Pass 1  IDiag  1:
 RMSU=  3.09D-06    CP:  9.99D-01  8.73D-01  4.19D-01  3.74D-01  7.08D-01
                    CP:  6.61D-01
 E= -7517.82398364293     Delta-E=        0.000000060167 Rises=F Damp=F
 DIIS: error= 2.79D-05 at cycle   7 NSaved=   7.
 NSaved= 7 IEnMin= 6 EnMin= -7517.82398370309     IErMin= 6 ErrMin= 2.09D-05
 ErrMax= 2.79D-05  0.00D+00 EMaxC= 1.00D-01 BMatC= 5.58D-07 BMatP= 5.39D-07
 IDIUse=1 WtCom= 1.00D+00 WtEn= 0.00D+00
 Coeff-Com: -0.167D-03 0.759D-02 0.540D-02 0.134D-01 0.668D-01 0.511D+00
 Coeff-Com:  0.396D+00
 Coeff:     -0.167D-03 0.759D-02 0.540D-02 0.134D-01 0.668D-01 0.511D+00
 Coeff:      0.396D+00
 Gap=     0.128 Goal=   None    Shift=    0.000
 RMSDP=2.43D-06 MaxDP=1.18D-04 DE= 6.02D-08 OVMax= 2.70D-04

 Cycle   8  Pass 1  IDiag  1:
 RMSU=  9.05D-07    CP:  9.99D-01  8.75D-01  4.21D-01  3.75D-01  7.22D-01
                    CP:  9.86D-01  4.52D-01
 E= -7517.82398435364     Delta-E=       -0.000000710708 Rises=F Damp=F
 DIIS: error= 7.34D-06 at cycle   8 NSaved=   8.
 NSaved= 8 IEnMin= 8 EnMin= -7517.82398435364     IErMin= 8 ErrMin= 7.34D-06
 ErrMax= 7.34D-06  0.00D+00 EMaxC= 1.00D-01 BMatC= 4.81D-08 BMatP= 5.39D-07
 IDIUse=1 WtCom= 1.00D+00 WtEn= 0.00D+00
 Coeff-Com:  0.798D-05-0.141D-01-0.557D-02-0.891D-02-0.428D-02 0.244D+00
 Coeff-Com:  0.278D+00 0.511D+00
 Coeff:      0.798D-05-0.141D-01-0.557D-02-0.891D-02-0.428D-02 0.244D+00
 Coeff:      0.278D+00 0.511D+00
 Gap=     0.128 Goal=   None    Shift=    0.000
 RMSDP=6.52D-07 MaxDP=2.83D-05 DE=-7.11D-07 OVMax= 6.24D-05

 Cycle   9  Pass 1  IDiag  1:
 RMSU=  2.83D-07    CP:  9.99D-01  8.75D-01  4.22D-01  3.78D-01  7.30D-01
                    CP:  1.00D+00  5.63D-01  5.66D-01
 E= -7517.82398440346     Delta-E=       -0.000000049822 Rises=F Damp=F
 DIIS: error= 1.40D-06 at cycle   9 NSaved=   9.
 NSaved= 9 IEnMin= 9 EnMin= -7517.82398440346     IErMin= 9 ErrMin= 1.40D-06
 ErrMax= 1.40D-06  0.00D+00 EMaxC= 1.00D-01 BMatC= 3.13D-09 BMatP= 4.81D-08
 IDIUse=1 WtCom= 1.00D+00 WtEn= 0.00D+00
 Coeff-Com:  0.219D-04-0.905D-02-0.380D-02-0.638D-02-0.986D-02 0.921D-01
 Coeff-Com:  0.126D+00 0.295D+00 0.515D+00
 Coeff:      0.219D-04-0.905D-02-0.380D-02-0.638D-02-0.986D-02 0.921D-01
 Coeff:      0.126D+00 0.295D+00 0.515D+00
 Gap=     0.128 Goal=   None    Shift=    0.000
 RMSDP=1.69D-07 MaxDP=1.23D-05 DE=-4.98D-08 OVMax= 2.00D-05

 Cycle  10  Pass 1  IDiag  1:
 RMSU=  9.80D-08    CP:  9.99D-01  8.76D-01  4.22D-01  3.79D-01  7.35D-01
                    CP:  1.00D+00  5.67D-01  6.46D-01  7.96D-01
 E= -7517.82398440656     Delta-E=       -0.000000003098 Rises=F Damp=F
 DIIS: error= 2.26D-07 at cycle  10 NSaved=  10.
 NSaved=10 IEnMin=10 EnMin= -7517.82398440656     IErMin=10 ErrMin= 2.26D-07
 ErrMax= 2.26D-07  0.00D+00 EMaxC= 1.00D-01 BMatC= 1.14D-10 BMatP= 3.13D-09
 IDIUse=1 WtCom= 1.00D+00 WtEn= 0.00D+00
 Coeff-Com:  0.488D-05-0.135D-02-0.561D-03-0.988D-03-0.270D-02 0.522D-02
 Coeff-Com:  0.119D-01 0.430D-01 0.172D+00 0.774D+00
 Coeff:      0.488D-05-0.135D-02-0.561D-03-0.988D-03-0.270D-02 0.522D-02
 Coeff:      0.119D-01 0.430D-01 0.172D+00 0.774D+00
 Gap=     0.128 Goal=   None    Shift=    0.000
 RMSDP=7.58D-08 MaxDP=2.98D-06 DE=-3.10D-09 OVMax= 1.09D-05

 Cycle  11  Pass 1  IDiag  1:
 RMSU=  6.07D-08    CP:  9.99D-01  8.76D-01  4.22D-01  3.79D-01  7.36D-01
                    CP:  1.01D+00  5.70D-01  6.50D-01  8.93D-01  9.29D-01
 E= -7517.82398440593     Delta-E=        0.000000000624 Rises=F Damp=F
 DIIS: error= 4.94D-07 at cycle  11 NSaved=  11.
 NSaved=11 IEnMin=10 EnMin= -7517.82398440656     IErMin=10 ErrMin= 2.26D-07
 ErrMax= 4.94D-07  0.00D+00 EMaxC= 1.00D-01 BMatC= 2.43D-10 BMatP= 1.14D-10
 IDIUse=1 WtCom= 1.00D+00 WtEn= 0.00D+00
 Coeff-Com:  0.243D-06 0.446D-03 0.198D-03 0.279D-03-0.581D-03-0.117D-01
 Coeff-Com: -0.122D-01-0.159D-01 0.549D-01 0.667D+00 0.318D+00
 Coeff:      0.243D-06 0.446D-03 0.198D-03 0.279D-03-0.581D-03-0.117D-01
 Coeff:     -0.122D-01-0.159D-01 0.549D-01 0.667D+00 0.318D+00
 Gap=     0.128 Goal=   None    Shift=    0.000
 RMSDP=4.69D-08 MaxDP=2.00D-06 DE= 6.24D-10 OVMax= 6.22D-06

 Cycle  12  Pass 1  IDiag  1:
 RMSU=  1.71D-08    CP:  9.99D-01  8.76D-01  4.22D-01  3.79D-01  7.36D-01
                    CP:  1.01D+00  5.72D-01  6.54D-01  9.05D-01  1.09D+00
                    CP:  3.51D-01
 E= -7517.82398440640     Delta-E=       -0.000000000467 Rises=F Damp=F
 DIIS: error= 6.72D-08 at cycle  12 NSaved=  12.
 NSaved=12 IEnMin=10 EnMin= -7517.82398440656     IErMin=12 ErrMin= 6.72D-08
 ErrMax= 6.72D-08  0.00D+00 EMaxC= 1.00D-01 BMatC= 7.78D-12 BMatP= 1.14D-10
 IDIUse=1 WtCom= 1.00D+00 WtEn= 0.00D+00
 Coeff-Com: -0.398D-06 0.432D-03 0.193D-03 0.283D-03-0.984D-05-0.765D-02
 Coeff-Com: -0.874D-02-0.149D-01 0.787D-02 0.290D+00 0.194D+00 0.538D+00
 Coeff:     -0.398D-06 0.432D-03 0.193D-03 0.283D-03-0.984D-05-0.765D-02
 Coeff:     -0.874D-02-0.149D-01 0.787D-02 0.290D+00 0.194D+00 0.538D+00
 Gap=     0.128 Goal=   None    Shift=    0.000
 RMSDP=1.04D-08 MaxDP=5.57D-07 DE=-4.67D-10 OVMax= 1.30D-06

 Cycle  13  Pass 1  IDiag  1:
 RMSU=  6.17D-09    CP:  9.99D-01  8.76D-01  4.22D-01  3.79D-01  7.36D-01
                    CP:  1.01D+00  5.72D-01  6.56D-01  9.13D-01  1.11D+00
                    CP:  4.33D-01  7.32D-01
 E= -7517.82398440592     Delta-E=        0.000000000478 Rises=F Damp=F
 DIIS: error= 2.05D-08 at cycle  13 NSaved=  13.
 NSaved=13 IEnMin=10 EnMin= -7517.82398440656     IErMin=13 ErrMin= 2.05D-08
 ErrMax= 2.05D-08  0.00D+00 EMaxC= 1.00D-01 BMatC= 9.08D-13 BMatP= 7.78D-12
 IDIUse=1 WtCom= 1.00D+00 WtEn= 0.00D+00
 Coeff-Com: -0.280D-06 0.186D-03 0.829D-04 0.128D-03 0.989D-04-0.265D-02
 Coeff-Com: -0.320D-02-0.602D-02-0.469D-02 0.628D-01 0.628D-01 0.309D+00
 Coeff-Com:  0.582D+00
 Coeff:     -0.280D-06 0.186D-03 0.829D-04 0.128D-03 0.989D-04-0.265D-02
 Coeff:     -0.320D-02-0.602D-02-0.469D-02 0.628D-01 0.628D-01 0.309D+00
 Coeff:      0.582D+00
 Gap=     0.128 Goal=   None    Shift=    0.000
 RMSDP=3.56D-09 MaxDP=1.87D-07 DE= 4.78D-10 OVMax= 4.00D-07

 SCF Done:  E(RPBE1PBE) =  -7517.82398441     A.U. after   13 cycles
            NFock= 13  Conv=0.36D-08     -V/T= 2.1284
 KE= 6.662181438890D+03 PE=-2.486806067144D+04 EE= 7.049795893705D+03
 Leave Link  502 at Tue Mar  6 12:30:42 2018, MaxMem=   536870912 cpu:      2710.2
 (Enter /share/apps//mg09/l701.exe)
 Compute integral first derivatives.
 ... and contract with generalized density number  0.
   1 Symmetry operations used in ECPInt.
 ECPInt:  NShTT=   10440 NPrTT=   41973 LenC2=    9714 LenP2D=   27619.
 LDataN:  DoStor=T MaxTD1= 9 Len=  602
 Leave Link  701 at Tue Mar  6 12:31:09 2018, MaxMem=   536870912 cpu:        95.2
 (Enter /share/apps//mg09/l702.exe)
 L702 exits ... SP integral derivatives will be done elsewhere.
 Leave Link  702 at Tue Mar  6 12:31:09 2018, MaxMem=   536870912 cpu:         0.1
 (Enter /share/apps//mg09/l703.exe)
 Compute integral first derivatives, UseDBF=F ICtDFT=           0.
 Integral derivatives from FoFJK, PRISM(SPDF).
 Calling FoFJK, ICntrl=      2127 FMM=F ISym2X=0 I1Cent= 0 IOpClX= 0 NMat=1 NMatS=1 NMatT=0.
 FoFJK:  IHMeth= 1 ICntrl=    2127 DoSepK=F KAlg= 0 I1Cent=   0 FoldK=F
 IRaf=         0 NMat=   1 IRICut=       1 DoRegI=T DoRafI=F ISym2E= 0.
 FoFCou: FMM=F IPFlag=           0 FMFlag=      100000 FMFlg1=         800
         NFxFlg=           0 DoJE=F BraDBF=F KetDBF=F FulRan=T
         wScrn=  0.000000 ICntrl=    2127 IOpCl=  0 I1Cent=           0 NGrid=           0
         NMat0=    1 NMatS0=      1 NMatT0=    0 NMatD0=    1 NMtDS0=    0 NMtDT0=    0
 Symmetry not used in FoFCou.
 Defaulting to unpruned grid for atomic number  50.
 Defaulting to unpruned grid for atomic number  50.
 Defaulting to unpruned grid for atomic number  50.
 Defaulting to unpruned grid for atomic number  50.
 Leave Link  703 at Tue Mar  6 12:35:43 2018, MaxMem=   536870912 cpu:       961.6
 (Enter /share/apps//mg09/l716.exe)
 Dipole        =-2.73187201D-01-7.08052289D-02-1.01911625D+00
 ***** Axes restored to original set *****
 -------------------------------------------------------------------
 Center     Atomic                   Forces (Hartrees/Bohr)
 Number     Number              X              Y              Z
 -------------------------------------------------------------------
      1       50          -0.002190232   -0.005166932    0.002564235
      2       83           0.001840264   -0.000575737    0.002620455
      3       32          -0.008500077    0.000240136   -0.005299351
      4       83           0.000293769   -0.000851946    0.000238272
      5       32           0.006569499   -0.004755113   -0.004148237
      6       50          -0.001894622    0.004866056    0.003731323
      7       32           0.003582166    0.006186151   -0.004186645
      8       83           0.000390692    0.000331970    0.001988324
      9       83          -0.000091459   -0.000274585    0.002491623
 -------------------------------------------------------------------
 Cartesian Forces:  Max     0.008500077 RMS     0.003616936
 Leave Link  716 at Tue Mar  6 12:35:43 2018, MaxMem=   536870912 cpu:         0.1
 (Enter /share/apps//mg09/l103.exe)

 GradGradGradGradGradGradGradGradGradGradGradGradGradGradGradGradGradGrad
 Berny optimization.
 Search for a local minimum.
 Step number   2 out of a maximum of  100
 All quantities printed in internal units (Hartrees-Bohrs-Radians)
 Update second derivatives using D2CorN and points    1    2
 DE= -6.35D-03 DEPred=-4.66D-03 R= 1.36D+00
 TightC=F SS=  1.41D+00  RLast= 2.32D-01 DXNew= 5.0454D-01 6.9513D-01
 Trust test= 1.36D+00 RLast= 2.32D-01 DXMaxT set to 5.05D-01
 ITU=  1  0
     Eigenvalues ---    0.07632   0.09401   0.11861   0.12428   0.12842
     Eigenvalues ---    0.13011   0.13801   0.14833   0.15987   0.16427
     Eigenvalues ---    0.18293   0.21212   0.21911   0.23164   0.23906
     Eigenvalues ---    0.25452   0.26115   0.28778   0.29552   0.30945
     Eigenvalues ---    0.31746
 RFO step:  Lambda=-6.44426175D-04 EMin= 7.63247910D-02
[...]
     X                      X                       X  X     X                                                                       
     X                      X                       X                                                                                
     X                                              X                                                                                
     X                                              X                                                                                
     X                                              X                                                                                
     X                                              X                                                                                
     X                                              X                                                                                
     X                                              X                                                                                
     X                                              X                                                                                
     X                                              X                                                                                
     X                                              X                                                                                
                                                    X                                                                                
                                                    X                                                                                
                                                    X                                                                                
 
 ***** Axes restored to original set *****
 -------------------------------------------------------------------
 Center     Atomic                   Forces (Hartrees/Bohr)
 Number     Number              X              Y              Z
 -------------------------------------------------------------------
      1       50          -0.000018805   -0.000013793    0.000012617
      2       83          -0.000040399   -0.000029688    0.000022305
      3       32           0.000013079    0.000051383    0.000026680
      4       83           0.000050922    0.000015038    0.000036337
      5       32          -0.000047605    0.000008701    0.000000950
      6       50          -0.000028238   -0.000024544    0.000005261
      7       32           0.000032738    0.000024654   -0.000056085
      8       83           0.000010484   -0.000020157   -0.000046177
      9       83           0.000027824   -0.000011595   -0.000001890
 -------------------------------------------------------------------
 Cartesian Forces:  Max     0.000056085 RMS     0.000029523
 Force constants in Cartesian coordinates: 
                1             2             3             4             5 
      1  0.570192D-01
      2  0.101030D-01  0.737931D-01
      3 -0.521309D-03 -0.242548D-02  0.343714D-01
      4 -0.227419D-02 -0.401848D-03  0.141246D-02  0.720889D-01
      5 -0.843365D-02 -0.272215D-02 -0.329786D-02  0.167127D-01  0.588388D-01
      6  0.101972D-02 -0.115294D-02  0.175321D-03  0.531988D-02 -0.129342D-01
      7 -0.144322D-03  0.621886D-04 -0.157607D-02 -0.751085D-02  0.333008D-02
      8  0.322316D-02 -0.267667D-01  0.127267D-01 -0.118320D-02 -0.191352D-02
      9 -0.494265D-02  0.100141D-01 -0.313602D-02 -0.952937D-03 -0.124269D-02
     10 -0.574722D-03 -0.241187D-03 -0.202819D-02 -0.196537D-01 -0.496872D-02
     11  0.825419D-04 -0.572268D-03 -0.546356D-02 -0.662565D-02  0.201710D-02
     12  0.656181D-03  0.478411D-03 -0.242157D-02  0.156834D-01  0.580849D-02
     13 -0.171945D-01 -0.121564D-01  0.120878D-01 -0.217693D-02 -0.468862D-02
     14 -0.136773D-01 -0.105777D-01  0.859389D-02 -0.289969D-02 -0.427650D-02
     15  0.125763D-01  0.427575D-02 -0.622034D-02 -0.637998D-03 -0.668890D-02
     16  0.174253D-02 -0.336656D-02 -0.324143D-02 -0.163511D-01  0.554617D-02
     17  0.362462D-02 -0.576129D-02 -0.105009D-02  0.548553D-02 -0.585274D-02
     18 -0.167983D-02  0.304690D-03 -0.939460D-03 -0.303275D-03  0.324766D-03
     19 -0.554672D-02  0.854467D-03  0.201640D-03 -0.152171D-01  0.124179D-02
     20  0.139707D-02 -0.333667D-02  0.131599D-02  0.133338D-02 -0.240425D-02
     21 -0.619636D-03  0.131907D-03 -0.262183D-02 -0.165546D-01  0.768288D-02
     22 -0.248286D-01 -0.389770D-02 -0.141278D-01 -0.484299D-02 -0.943007D-02
     23 -0.542622D-02 -0.452559D-02 -0.843131D-03 -0.996250D-02 -0.413862D-01
     24 -0.158166D-01  0.122187D-03 -0.975075D-02 -0.951071D-03  0.100520D-01
     25 -0.819860D-02  0.904402D-02  0.779286D-02 -0.406216D-02  0.690306D-03
     26  0.910676D-02 -0.195307D-01 -0.955645D-02 -0.245874D-02 -0.230046D-02
     27  0.932782D-02 -0.117486D-01 -0.945675D-02 -0.301592D-02  0.295430D-03
                6             7             8             9            10 
      6  0.556701D-01
      7 -0.531446D-02  0.688529D-01
      8 -0.366076D-02  0.102827D-01  0.538425D-01
      9 -0.631689D-02 -0.910151D-03 -0.113922D-01  0.583993D-01
     10  0.134847D-01  0.289527D-03 -0.145015D-02 -0.974509D-02  0.618018D-01
     11  0.735007D-02  0.664892D-03 -0.300302D-02  0.102157D-02 -0.668384D-02
     12 -0.218390D-01 -0.399846D-03  0.168115D-03 -0.412786D-02 -0.249071D-02
     13  0.331894D-03 -0.213923D-01  0.113123D-01  0.504276D-02 -0.103909D-02
     14 -0.492953D-02  0.110911D-01 -0.314662D-02 -0.130068D-02 -0.156242D-02
     15 -0.648690D-02 -0.188053D-02  0.222870D-02 -0.352787D-02  0.746830D-02
     16  0.114649D-02 -0.283510D-03 -0.188487D-02 -0.349499D-02  0.121745D-02
     17  0.489500D-04  0.277334D-03 -0.854515D-02 -0.501675D-02  0.588791D-02
     18  0.476997D-02 -0.293537D-02 -0.603547D-02 -0.621097D-02 -0.146422D-02
     19 -0.180708D-01 -0.264321D-01 -0.221973D-01  0.703157D-02  0.101350D-02
     20  0.706475D-02 -0.201440D-01 -0.136963D-01  0.626780D-02  0.611661D-03
     21 -0.284122D-01  0.220757D-02  0.187530D-02 -0.185768D-02  0.269738D-02
     22 -0.243889D-02 -0.566045D-02  0.328888D-02 -0.974622D-03 -0.894949D-02
     23  0.620116D-02 -0.283572D-02  0.874883D-03 -0.539479D-04  0.161432D-01
     24 -0.209819D-02 -0.250253D-02  0.190339D-02 -0.494003D-02  0.894867D-02
     25  0.452141D-02 -0.771891D-02 -0.139157D-02  0.894612D-02 -0.341053D-01
     26  0.201248D-02 -0.272860D-02  0.235390D-02  0.170281D-02 -0.773640D-02
     27  0.453787D-02  0.133114D-01  0.218623D-02 -0.282820D-01 -0.168709D-01
               11            12            13            14            15 
     11  0.367548D-01
     12  0.613752D-02  0.821843D-01
     13 -0.308336D-02 -0.373735D-03  0.487548D-01
     14 -0.880211D-03 -0.873189D-03 -0.736814D-02  0.662652D-01
     15 -0.645325D-02 -0.492347D-02 -0.133279D-01 -0.530099D-02  0.535190D-01
     16  0.661851D-02 -0.386300D-02 -0.387071D-02  0.451611D-02 -0.136356D-02
     17 -0.721938D-02  0.774549D-02  0.334305D-03 -0.408521D-02 -0.688830D-03
     18  0.748472D-02 -0.134816D-01 -0.284752D-03 -0.443009D-02 -0.468870D-02
     19  0.405236D-03 -0.100296D-02 -0.212394D-04  0.517007D-02 -0.265480D-04
     20 -0.143927D-02 -0.150252D-02  0.342938D-02 -0.388908D-01  0.606979D-02
     21  0.402015D-02 -0.403083D-02  0.369549D-04  0.209493D-02 -0.156773D-02
     22  0.149990D-01  0.978859D-02  0.528918D-03  0.428769D-02 -0.303333D-02
     23 -0.248408D-01 -0.153100D-01  0.670972D-02 -0.347767D-02  0.685096D-02
     24 -0.127957D-01 -0.151254D-01 -0.642552D-02  0.646789D-02 -0.208841D-01
     25 -0.637735D-02 -0.179979D-01 -0.358890D-02  0.442548D-03  0.225241D-03
     26 -0.817011D-03 -0.265232D-02  0.551072D-02 -0.930528D-03 -0.293238D-03
     27 -0.130156D-02 -0.162345D-01  0.291251D-02 -0.322230D-03 -0.521989D-02
               16            17            18            19            20 
     16  0.393292D-01
     17 -0.318599D-02  0.684850D-01
     18 -0.128197D-01  0.697220D-03  0.414017D-01
     19 -0.756005D-02  0.397916D-02  0.141159D-01  0.553044D-01
     20  0.449747D-02 -0.463036D-02 -0.765449D-02  0.101644D-01  0.677841D-01
     21  0.137053D-01 -0.467061D-02 -0.222170D-01 -0.289046D-02 -0.147513D-01
     22 -0.250459D-02 -0.124001D-02 -0.189658D-03  0.162038D-02 -0.798495D-03
     23  0.249844D-02 -0.455954D-02  0.441275D-02  0.514454D-02 -0.373550D-02
     24  0.322636D-02 -0.242194D-02  0.352078D-02 -0.696379D-03  0.259892D-02
     25 -0.117192D-01 -0.151629D-01  0.556098D-02 -0.316115D-02 -0.490874D-03
     26 -0.152393D-01 -0.278313D-01  0.489590D-02 -0.476234D-02  0.349047D-03
     27  0.670460D-02  0.535658D-02 -0.215465D-02  0.133808D-02  0.591100D-03
               21            22            23            24            25 
     21  0.667379D-01
     22  0.218282D-02  0.491567D-01
     23  0.192462D-02 -0.122529D-01  0.829089D-01
     24 -0.244946D-02  0.119612D-01 -0.303818D-02  0.516658D-01
     25 -0.765339D-03 -0.451988D-02 -0.185357D-04  0.225588D-02  0.770741D-01
     26  0.169215D-02  0.504357D-02 -0.125843D-02 -0.288864D-02  0.132643D-01
     27 -0.358113D-02 -0.316836D-02 -0.144234D-03  0.612754D-04 -0.105392D-01
               26            27 
     26  0.499655D-01
     27  0.508729D-02  0.603298D-01
 Leave Link  716 at Tue Mar  6 16:11:06 2018, MaxMem=   536870912 cpu:         0.1
 (Enter /share/apps//mg09/l103.exe)

 GradGradGradGradGradGradGradGradGradGradGradGradGradGradGradGradGradGrad
 Berny optimization.
 Search for a local minimum.
 Step number   1 out of a maximum of    2
 All quantities printed in internal units (Hartrees-Bohrs-Radians)
 Second derivative matrix not updated -- analytic derivatives used.
 ITU=  0
     Eigenvalues ---    0.00934   0.01874   0.03104   0.03850   0.04213
     Eigenvalues ---    0.04769   0.05272   0.05769   0.05884   0.05999
     Eigenvalues ---    0.06995   0.07202   0.08299   0.08616   0.10230
     Eigenvalues ---    0.10422   0.11381   0.12025   0.13170   0.14105
     Eigenvalues ---    0.14940
 Angle between quadratic step and forces=  40.85 degrees.
 Linear search not attempted -- first point.
 TrRot=  0.000020  0.000027 -0.000002  0.000008  0.000000  0.000008
 Variable       Old X    -DE/DX   Delta X   Delta X   Delta X     New X
                                 (Linear)    (Quad)   (Total)
    X1        2.08950  -0.00002   0.00000  -0.00029  -0.00033   2.08916
    Y1        4.40164  -0.00001   0.00000  -0.00044  -0.00038   4.40126
    Z1        1.79874   0.00001   0.00000  -0.00025  -0.00025   1.79849
    X2       -3.92151  -0.00004   0.00000  -0.00068  -0.00063  -3.92214
    Y2       -2.04674  -0.00003   0.00000  -0.00007  -0.00011  -2.04685
    Z2        0.16217   0.00002   0.00000   0.00096   0.00096   0.16312
    X3        2.88492   0.00001   0.00000   0.00034   0.00037   2.88529
    Y3       -0.36743   0.00005   0.00000   0.00140   0.00147  -0.36596
    Z3        4.02697   0.00003   0.00000   0.00052   0.00052   4.02748
    X4       -0.16303   0.00005   0.00000   0.00088   0.00091  -0.16212
    Y4       -0.73615   0.00002   0.00000   0.00091   0.00094  -0.73521
    Z4       -4.02128   0.00004   0.00000   0.00075   0.00075  -4.02053
    X5       -1.81057  -0.00005   0.00000  -0.00102  -0.00102  -1.81159
    Y5        1.76506   0.00001   0.00000  -0.00011  -0.00011   1.76495
    Z5        4.16156   0.00000   0.00000  -0.00008  -0.00008   4.16148
    X6        1.64441  -0.00003   0.00000  -0.00160  -0.00151   1.64290
    Y6       -4.53320  -0.00002   0.00000  -0.00075  -0.00069  -4.53389
    Z6        0.20153   0.00001   0.00000  -0.00128  -0.00128   0.20025
    X7       -1.12497   0.00003   0.00000   0.00157   0.00164  -1.12333
    Y7       -3.12353   0.00002   0.00000   0.00006   0.00007  -3.12346
    Z7        4.51165  -0.00006   0.00000  -0.00073  -0.00073   4.51092
    X8       -2.74830   0.00001   0.00000  -0.00024  -0.00027  -2.74857
    Y8        3.40257  -0.00002   0.00000  -0.00010  -0.00012   3.40245
    Z8       -1.04897  -0.00005   0.00000  -0.00038  -0.00038  -1.04935
    X9        4.61583   0.00003   0.00000   0.00084   0.00085   4.61668
    Y9        0.10245  -0.00001   0.00000  -0.00116  -0.00106   0.10139
    Z9       -1.05975   0.00000   0.00000   0.00051   0.00050  -1.05925
         Item               Value     Threshold  Converged?
 Maximum Force            0.000056     0.000450     YES
 RMS     Force            0.000030     0.000300     YES
 Maximum Displacement     0.001638     0.001800     YES
 RMS     Displacement     0.000805     0.001200     YES
 Predicted change in Energy=-2.462070D-07
 Optimization completed.
    -- Stationary point found.
 GradGradGradGradGradGradGradGradGradGradGradGradGradGradGradGradGradGrad

 Leave Link  103 at Tue Mar  6 16:11:06 2018, MaxMem=   536870912 cpu:         0.2
 (Enter /share/apps//mg09/l9999.exe)
 1\1\GINC-COMPUTE-0-1\Freq\RPBE1PBE\def2TZVP\Bi4Ge3Sn2\RODRIGO\06-Mar-2
 018\0\\#P Geom=AllCheck Guess=TCheck SCRF=Check GenChk RPBE1PBE/def2TZ
 VP Freq\\01Final_coords.xyz_20\\0,1\Sn,1.105714462,2.3292475835,0.9518
 515497\Bi,-2.0751735518,-1.0830892449,0.0858155998\Ge,1.5266317527,-0.
 1944332488,2.1309792951\Bi,-0.0862707032,-0.3895514919,-2.1279714013\G
 e,-0.9581101754,0.9340287492,2.2022012584\Sn,0.8701831147,-2.398863833
 4,0.1066432833\Ge,-0.5953080608,-1.6529020211,2.3874642816\Bi,-1.45433
 77336,1.8005635932,-0.5550897457\Bi,2.4425898962,0.0542159142,-0.56079
 51211\\Version=ES64L-G09RevD.01\State=1-A\HF=-7517.8258471\RMSD=3.323e
 -09\RMSF=2.952e-05\ZeroPoint=0.0058884\Thermal=0.0233079\Dipole=-0.274
 0671,-0.0563444,-1.0587856\DipoleDeriv=0.0284904,0.1471959,0.0545152,0
 .0832735,0.2447107,0.1098088,0.0333111,0.0818904,0.0401461,0.0921318,0
 .0180676,0.0025481,-0.0362922,0.0159697,0.0102051,-0.0230113,-0.015151
 7,0.0231152,-0.08587,-0.0654514,0.1351463,-0.0307976,-0.0986721,0.0265
 354,0.0513288,0.0315968,-0.0288844,-0.0833161,0.0479538,0.0293895,0.04
 88799,0.0054543,0.0250114,0.0194198,0.0209175,0.0363252,0.0068069,0.03
 60924,-0.0825449,0.0523466,-0.0728583,0.0587854,-0.0029981,0.0478059,-
 0.0090115,0.1296228,-0.0950604,-0.0025383,-0.0821222,0.292129,0.007935
 1,-0.0265404,0.0411875,0.0110903,-0.1353333,0.0617844,-0.0791377,0.063
 4843,-0.0934907,-0.1744057,-0.0620026,-0.1640081,0.0621374,-0.0227491,
 -0.1378547,-0.0277225,-0.0544811,-0.0856478,-0.014997,-0.0166102,-0.01
 3466,-0.0495762,0.0702166,-0.0127277,-0.0296556,-0.0442912,-0.2075948,
 -0.0488784,0.0271029,-0.0307723,-0.0853421\Polar=375.6723113,1.5998693
 ,392.1005186,1.4763206,1.4382003,365.8323444\PG=C01 [X(Bi4Ge3Sn2)]\NIm
 ag=0\\0.05701915,0.01010297,0.07379312,-0.00052131,-0.00242548,0.03437
 140,-0.00227419,-0.00040185,0.00141246,0.07208895,-0.00843365,-0.00272
 215,-0.00329786,0.01671271,0.05883877,0.00101972,-0.00115294,0.0001753
 2,0.00531988,-0.01293417,0.05567007,-0.00014432,0.00006219,-0.00157607
 ,-0.00751085,0.00333008,-0.00531446,0.06885286,0.00322316,-0.02676667,
 0.01272669,-0.00118320,-0.00191352,-0.00366076,0.01028272,0.05384253,-
 0.00494265,0.01001409,-0.00313602,-0.00095294,-0.00124269,-0.00631689,
 -0.00091015,-0.01139219,0.05839930,-0.00057472,-0.00024119,-0.00202819
 ,-0.01965366,-0.00496872,0.01348475,0.00028953,-0.00145015,-0.00974509
 ,0.06180181,0.00008254,-0.00057227,-0.00546356,-0.00662565,0.00201710,
 0.00735007,0.00066489,-0.00300302,0.00102157,-0.00668384,0.03675484,0.
 00065618,0.00047841,-0.00242157,0.01568341,0.00580849,-0.02183904,-0.0
 0039985,0.00016811,-0.00412786,-0.00249071,0.00613752,0.08218430,-0.01
 719454,-0.01215636,0.01208778,-0.00217693,-0.00468862,0.00033189,-0.02
 139228,0.01131235,0.00504276,-0.00103909,-0.00308336,-0.00037373,0.048
 75477,-0.01367725,-0.01057774,0.00859389,-0.00289969,-0.00427650,-0.00
 492953,0.01109108,-0.00314662,-0.00130068,-0.00156242,-0.00088021,-0.0
 0087319,-0.00736814,0.06626523,0.01257633,0.00427575,-0.00622034,-0.00
 063800,-0.00668890,-0.00648690,-0.00188053,0.00222870,-0.00352787,0.00
 746830,-0.00645325,-0.00492347,-0.01332790,-0.00530099,0.05351902,0.00
 174253,-0.00336656,-0.00324143,-0.01635110,0.00554617,0.00114649,-0.00
 028351,-0.00188487,-0.00349499,0.00121745,0.00661851,-0.00386300,-0.00
 387071,0.00451611,-0.00136356,0.03932920,0.00362462,-0.00576129,-0.001
 05009,0.00548553,-0.00585274,0.00004895,0.00027733,-0.00854515,-0.0050
 1675,0.00588791,-0.00721938,0.00774549,0.00033430,-0.00408521,-0.00068
 883,-0.00318599,0.06848500,-0.00167983,0.00030469,-0.00093946,-0.00030
 328,0.00032477,0.00476997,-0.00293537,-0.00603547,-0.00621097,-0.00146
 422,0.00748472,-0.01348164,-0.00028475,-0.00443009,-0.00468870,-0.0128
 1974,0.00069722,0.04140172,-0.00554672,0.00085447,0.00020164,-0.015217
 07,0.00124179,-0.01807080,-0.02643206,-0.02219732,0.00703157,0.0010135
 0,0.00040524,-0.00100296,-0.00002124,0.00517007,-0.00002655,-0.0075600
 5,0.00397916,0.01411586,0.05530440,0.00139707,-0.00333667,0.00131599,0
 .00133338,-0.00240425,0.00706475,-0.02014399,-0.01369635,0.00626780,0.
 00061166,-0.00143927,-0.00150252,0.00342938,-0.03889076,0.00606979,0.0
 0449747,-0.00463036,-0.00765449,0.01016439,0.06778410,-0.00061964,0.00
 013191,-0.00262183,-0.01655455,0.00768288,-0.02841221,0.00220757,0.001
 87530,-0.00185768,0.00269738,0.00402015,-0.00403083,0.00003695,0.00209
 493,-0.00156773,0.01370526,-0.00467061,-0.02221705,-0.00289046,-0.0147
 5132,0.06673793,-0.02482858,-0.00389770,-0.01412776,-0.00484299,-0.009
 43007,-0.00243889,-0.00566045,0.00328888,-0.00097462,-0.00894949,0.014
 99901,0.00978859,0.00052892,0.00428769,-0.00303333,-0.00250459,-0.0012
 4001,-0.00018966,0.00162038,-0.00079849,0.00218282,0.04915668,-0.00542
 622,-0.00452559,-0.00084313,-0.00996250,-0.04138625,0.00620116,-0.0028
 3572,0.00087488,-0.00005395,0.01614315,-0.02484079,-0.01531000,0.00670
 972,-0.00347767,0.00685096,0.00249844,-0.00455954,0.00441275,0.0051445
 4,-0.00373550,0.00192462,-0.01225288,0.08290888,-0.01581663,0.00012219
 ,-0.00975075,-0.00095107,0.01005205,-0.00209819,-0.00250253,0.00190339
 ,-0.00494003,0.00894867,-0.01279566,-0.01512535,-0.00642552,0.00646789
 ,-0.02088411,0.00322636,-0.00242194,0.00352078,-0.00069638,0.00259892,
 -0.00244946,0.01196122,-0.00303818,0.05166584,-0.00819860,0.00904402,0
 .00779286,-0.00406216,0.00069031,0.00452141,-0.00771891,-0.00139157,0.
 00894612,-0.03410533,-0.00637735,-0.01799793,-0.00358890,0.00044255,0.
 00022524,-0.01171921,-0.01516285,0.00556098,-0.00316115,-0.00049087,-0
 .00076534,-0.00451988,-0.00001854,0.00225588,0.07707414,0.00910676,-0.
 01953074,-0.00955645,-0.00245874,-0.00230046,0.00201248,-0.00272860,0.
 00235390,0.00170281,-0.00773640,-0.00081701,-0.00265232,0.00551072,-0.
 00093053,-0.00029324,-0.01523926,-0.02783131,0.00489590,-0.00476234,0.
 00034905,0.00169215,0.00504357,-0.00125843,-0.00288864,0.01326431,0.04
 996554,0.00932782,-0.01174861,-0.00945675,-0.00301592,0.00029543,0.004
 53787,0.01331139,0.00218623,-0.02828197,-0.01687089,-0.00130156,-0.016
 23454,0.00291251,-0.00032223,-0.00521989,0.00670460,0.00535658,-0.0021
 5465,0.00133808,0.00059110,-0.00358113,-0.00316836,-0.00014423,0.00006
 128,-0.01053923,0.00508729,0.06032978\\0.00001880,0.00001379,-0.000012
 62,0.00004040,0.00002969,-0.00002231,-0.00001308,-0.00005138,-0.000026
 68,-0.00005092,-0.00001504,-0.00003634,0.00004761,-0.00000870,-0.00000
 095,0.00002824,0.00002454,-0.00000526,-0.00003274,-0.00002465,0.000056
 08,-0.00001048,0.00002016,0.00004618,-0.00002782,0.00001159,0.00000189
 \\\@


 SEEN ON A WALL AT THE UNIVERSITY OF ILLINOIS AT CHICAGO CIRCLE:

 TO DO IS TO BE  -- SOCRATES
 TO BE IS TO DO  -- SARTRE
 OO BE DO BE DO  -- SINATRA
 Job cpu time:       0 days  4 hours 45 minutes 40.5 seconds.
 File lengths (MBytes):  RWF=    299 Int=      0 D2E=      0 Chk=     16 Scr=      1
 Normal termination of Gaussian 09 at Tue Mar  6 16:11:08 2018.
