 Entering Gaussian System, Link 0=/share/apps/mg09/g09
 Initial command:
 /share/apps//mg09/l1.exe "/state/partition1/gauss_tmp/Gau-16626.inp" -scrdir="/state/partition1/gauss_tmp/"
 Entering Link 1 = /share/apps//mg09/l1.exe PID=     16628.
  
 Copyright (c) 1988,1990,1992,1993,1995,1998,2003,2009,2013,
            Gaussian, Inc.  All Rights Reserved.
  
 This is part of the Gaussian(R) 09 program.  It is based on
 the Gaussian(R) 03 system (copyright 2003, Gaussian, Inc.),
 the Gaussian(R) 98 system (copyright 1998, Gaussian, Inc.),
 the Gaussian(R) 94 system (copyright 1995, Gaussian, Inc.),
 the Gaussian 92(TM) system (copyright 1992, Gaussian, Inc.),
 the Gaussian 90(TM) system (copyright 1990, Gaussian, Inc.),
 the Gaussian 88(TM) system (copyright 1988, Gaussian, Inc.),
 the Gaussian 86(TM) system (copyright 1986, Carnegie Mellon
 University), and the Gaussian 82(TM) system (copyright 1983,
 Carnegie Mellon University). Gaussian is a federally registered
 trademark of Gaussian, Inc.
  
 This software contains proprietary and confidential information,
 including trade secrets, belonging to Gaussian, Inc.
  
 This software is provided under written license and may be
 used, copied, transmitted, or stored only in accord with that
 written license.
  
 The following legend is applicable only to US Government
 contracts under FAR:
  
                    RESTRICTED RIGHTS LEGEND
  
 Use, reproduction and disclosure by the US Government is
 subject to restrictions as set forth in subparagraphs (a)
 and (c) of the Commercial Computer Software - Restricted
 Rights clause in FAR 52.227-19.
  
 Gaussian, Inc.
 340 Quinnipiac St., Bldg. 40, Wallingford CT 06492
  
  
 ---------------------------------------------------------------
 Warning -- This program may not be used in any manner that
 competes with the business of Gaussian, Inc. or will provide
 assistance to any competitor of Gaussian, Inc.  The licensee
 of this program is prohibited from giving any competitor of
 Gaussian, Inc. access to this program.  By using this program,
 the user acknowledges that Gaussian, Inc. is engaged in the
 business of creating and licensing software in the field of
 computational chemistry and represents and warrants to the
 licensee that it is not a competitor of Gaussian, Inc. and that
 it will not use this program in any manner prohibited above.
 ---------------------------------------------------------------
  

 Cite this work as:
 Gaussian 09, Revision D.01,
 M. J. Frisch, G. W. Trucks, H. B. Schlegel, G. E. Scuseria, 
 M. A. Robb, J. R. Cheeseman, G. Scalmani, V. Barone, B. Mennucci, 
 G. A. Petersson, H. Nakatsuji, M. Caricato, X. Li, H. P. Hratchian, 
 A. F. Izmaylov, J. Bloino, G. Zheng, J. L. Sonnenberg, M. Hada, 
 M. Ehara, K. Toyota, R. Fukuda, J. Hasegawa, M. Ishida, T. Nakajima, 
 Y. Honda, O. Kitao, H. Nakai, T. Vreven, J. A. Montgomery, Jr., 
 J. E. Peralta, F. Ogliaro, M. Bearpark, J. J. Heyd, E. Brothers, 
 K. N. Kudin, V. N. Staroverov, T. Keith, R. Kobayashi, J. Normand, 
 K. Raghavachari, A. Rendell, J. C. Burant, S. S. Iyengar, J. Tomasi, 
 M. Cossi, N. Rega, J. M. Millam, M. Klene, J. E. Knox, J. B. Cross, 
 V. Bakken, C. Adamo, J. Jaramillo, R. Gomperts, R. E. Stratmann, 
 O. Yazyev, A. J. Austin, R. Cammi, C. Pomelli, J. W. Ochterski, 
 R. L. Martin, K. Morokuma, V. G. Zakrzewski, G. A. Voth, 
 P. Salvador, J. J. Dannenberg, S. Dapprich, A. D. Daniels, 
 O. Farkas, J. B. Foresman, J. V. Ortiz, J. Cioslowski, 
 and D. J. Fox, Gaussian, Inc., Wallingford CT, 2013.
 
 ******************************************
 Gaussian 09:  ES64L-G09RevD.01 24-Apr-2013
                 6-Mar-2018 
 ******************************************
 %NProcShared=4
 Will use up to    4 processors via shared memory.
 %LindaWorkers=compute-0-4
 %chk=Isomer_37.chk
 %NProc=4
 Will use up to    4 processors via shared memory.
 %mem=4GB
 SetLPE:  input flags=" -vv -opt "Tsnet.Node.lindarsharg: ssh" "
 SetLPE:    new flags=" -vv -opt "Tsnet.Node.lindarsharg: ssh"  -nodelist 'compute-0-4.local'"
 Will use up to    1 processors via Linda.
 ----------------------------------------------------------------------
 #p PBE1PBE/Def2TZVP scf=(maxcycle=768) opt=(cartesian,maxcycle=512) fr
 eq
 ----------------------------------------------------------------------
 1/6=512,10=7,14=-1,18=10,26=3,38=1/1,3;
 2/12=2,17=6,18=5,29=2,40=1/2;
 3/5=44,7=101,11=2,16=1,25=1,30=1,71=1,74=-13/1,2,3;
 4//1;
 5/5=2,7=768,38=5/2;
 6/7=2,8=2,9=2,10=2,28=1/1;
 7/7=1,29=1/1,2,3,16;
 1/6=512,10=7,14=-1,18=10,26=3/3(2);
 2/29=1/2;
 99/12=1/99;
 2/29=1/2;
 3/5=44,7=101,11=2,16=1,25=1,30=1,71=1,74=-13/1,2,3;
 4/5=5,16=3,69=1/1;
 5/5=2,7=768,38=5/2;
 7/7=1/1,2,3,16;
 1/6=512,14=-1,18=10,26=3/3(-5);
 2/29=1/2;
 6/7=2,8=2,9=2,10=2,19=2,28=1/1;
 99/9=1,12=1/99;
 Leave Link    1 at Tue Mar  6 14:33:13 2018, MaxMem=   536870912 cpu:         0.2
 (Enter /share/apps//mg09/l101.exe)
 ---------------------
 01Final_coords.xyz_37
 ---------------------
 Symbolic Z-matrix:
 Charge =  0 Multiplicity = 1
 83                   -1.28577  -1.98756   0.16863 
 32                   -0.13467   2.24218   1.39877 
 50                   -0.4277   -0.37847  -2.39335 
 83                    2.04186   1.33982  -0.41171 
 83                    1.64569  -1.69226  -0.47673 
 50                    1.56651  -0.10113   2.22871 
 83                   -2.37835   0.87883  -0.08813 
 32                   -1.32052  -0.10848   2.42086 
 32                   -0.38496   2.40557  -1.46678 
 
 NAtoms=      9 NQM=        9 NQMF=       0 NMMI=      0 NMMIF=      0
                NMic=       0 NMicF=      0.
                    Isotopes and Nuclear Properties:
 (Nuclear quadrupole moments (NQMom) in fm**2, nuclear magnetic moments (NMagM)
  in nuclear magnetons)

  Atom         1           2           3           4           5           6           7           8           9
 IAtWgt=         209          74         118         209         209         118         209          74          74
 AtmWgt= 208.9804000  73.9211788 117.9018000 208.9804000 208.9804000 117.9018000 208.9804000  73.9211788  73.9211788
 NucSpn=           9           0           0           9           9           0           9           0           0
 AtZEff=   0.0000000   0.0000000   0.0000000   0.0000000   0.0000000   0.0000000   0.0000000   0.0000000   0.0000000
 NQMom=  -51.6000000   0.0000000   0.0000000 -51.6000000 -51.6000000   0.0000000 -51.6000000   0.0000000   0.0000000
 NMagM=    4.1106000   0.0000000   0.0000000   4.1106000   4.1106000   0.0000000   4.1106000   0.0000000   0.0000000
 AtZNuc=  83.0000000  32.0000000  50.0000000  83.0000000  83.0000000  50.0000000  83.0000000  32.0000000  32.0000000
 Leave Link  101 at Tue Mar  6 14:33:13 2018, MaxMem=   536870912 cpu:         0.2
 (Enter /share/apps//mg09/l103.exe)

 GradGradGradGradGradGradGradGradGradGradGradGradGradGradGradGradGradGrad
 Berny optimization.
 Initialization pass.
 No Z-matrix variables, so optimization will use Cartesian coordinates.
 Trust Radius=3.00D-01 FncErr=1.00D-07 GrdErr=1.00D-06
 Number of steps in this run=    100 maximum allowed number of steps=    100.
 GradGradGradGradGradGradGradGradGradGradGradGradGradGradGradGradGradGrad

 Leave Link  103 at Tue Mar  6 14:33:13 2018, MaxMem=   536870912 cpu:         0.1
 (Enter /share/apps//mg09/l202.exe)
 ---------------------------------------------------------------------------------------------------
                            Z-MATRIX (ANGSTROMS AND DEGREES)
   CD    Cent   Atom    N1       Length/X        N2       Alpha/Y        N3        Beta/Z          J
 ---------------------------------------------------------------------------------------------------
      1      1  Bi       0  -1.285767         -1.987555          0.168625
      2      2  Ge       0  -0.134674          2.242175          1.398773
      3      3  Sn       0  -0.427703         -0.378470         -2.393352
      4      4  Bi       0   2.041857          1.339820         -0.411710
      5      5  Bi       0   1.645691         -1.692262         -0.476731
      6      6  Sn       0   1.566511         -0.101126          2.228710
      7      7  Bi       0  -2.378350          0.878833         -0.088130
      8      8  Ge       0  -1.320523         -0.108477          2.420863
      9      9  Ge       0  -0.384964          2.405567         -1.466777
 ---------------------------------------------------------------------------------------------------
                         Z-Matrix orientation:                         
 ---------------------------------------------------------------------
 Center     Atomic      Atomic             Coordinates (Angstroms)
 Number     Number       Type             X           Y           Z
 ---------------------------------------------------------------------
      1         83           0       -1.285767   -1.987555    0.168625
      2         32           0       -0.134674    2.242175    1.398773
      3         50           0       -0.427703   -0.378470   -2.393352
      4         83           0        2.041857    1.339820   -0.411710
      5         83           0        1.645691   -1.692262   -0.476731
      6         50           0        1.566511   -0.101126    2.228710
      7         83           0       -2.378350    0.878833   -0.088130
      8         32           0       -1.320523   -0.108477    2.420863
      9         32           0       -0.384964    2.405567   -1.466777
 ---------------------------------------------------------------------
                    Distance matrix (angstroms):
                    1          2          3          4          5
     1  Bi   0.000000
     2  Ge   4.552900   0.000000
     3  Sn   3.144703   4.618859   0.000000
     4  Bi   4.741444   2.971427   3.602520   0.000000
     5  Bi   3.016145   4.708185   3.114233   3.058545   0.000000
     6  Sn   3.992249   3.012289   5.041554   3.045340   3.139649
     7  Bi   3.078285   3.017228   3.271068   4.455945   4.791080
     8  Ge   2.933380   2.824265   4.903742   4.628891   4.438789
     9  Ge   4.773417   2.881097   2.934490   2.852796   4.679311
                    6          7          8          9
     6  Sn   0.000000
     7  Bi   4.678675   0.000000
     8  Ge   2.893431   2.896347   0.000000
     9  Ge   4.873232   2.864467   4.723286   0.000000
 Stoichiometry    Bi4Ge3Sn2
 Framework group  C1[X(Bi4Ge3Sn2)]
 Deg. of freedom    21
 Full point group                 C1      NOp   1
 Largest Abelian subgroup         C1      NOp   1
 Largest concise Abelian subgroup C1      NOp   1
                         Standard orientation:                         
 ---------------------------------------------------------------------
 Center     Atomic      Atomic             Coordinates (Angstroms)
 Number     Number       Type             X           Y           Z
 ---------------------------------------------------------------------
      1         83           0       -1.285766   -1.987556    0.168625
      2         32           0       -0.134676    2.242175    1.398773
      3         50           0       -0.427703   -0.378470   -2.393352
      4         83           0        2.041856    1.339821   -0.411710
      5         83           0        1.645692   -1.692261   -0.476731
      6         50           0        1.566511   -0.101125    2.228710
      7         83           0       -2.378351    0.878831   -0.088130
      8         32           0       -1.320523   -0.108478    2.420863
      9         32           0       -0.384966    2.405567   -1.466777
 ---------------------------------------------------------------------
 Rotational constants (GHZ):      0.1038531      0.0917999      0.0815713
 Leave Link  202 at Tue Mar  6 14:33:13 2018, MaxMem=   536870912 cpu:         0.0
 (Enter /share/apps//mg09/l301.exe)
 Standard basis: def2TZVP (5D, 7F)
 Ernie: Thresh=  0.10000D-02 Tol=  0.10000D-05 Strict=F.
 There are   519 symmetry adapted cartesian basis functions of A   symmetry.
 There are   444 symmetry adapted basis functions of A   symmetry.
   444 basis functions,   963 primitive gaussians,   519 cartesian basis functions
   116 alpha electrons      116 beta electrons
       nuclear repulsion energy      3543.1859526765 Hartrees.
 IExCor= 1009 DFT=T Ex+Corr=PBE1PBE ExCW=0 ScaHFX=  0.250000
 ScaDFX=  0.750000  0.750000  1.000000  1.000000 ScalE2=  1.000000  1.000000
 IRadAn=      0 IRanWt=     -1 IRanGd=            0 ICorTp=0 IEmpDi=  4
 NAtoms=    9 NActive=    9 NUniq=    9 SFac= 1.00D+00 NAtFMM=   60 NAOKFM=F Big=F
 Integral buffers will be    131072 words long.
 Raffenetti 2 integral format.
 Two-electron integral symmetry is turned on.
 Leave Link  301 at Tue Mar  6 14:33:13 2018, MaxMem=   536870912 cpu:         0.2
 (Enter /share/apps//mg09/l302.exe)
 NPDir=0 NMtPBC=     1 NCelOv=     1 NCel=       1 NClECP=     1 NCelD=      1
         NCelK=      1 NCelE2=     1 NClLst=     1 CellRange=     0.0.
 One-electron integrals computed using PRISM.
   1 Symmetry operations used in ECPInt.
 ECPInt:  NShTT=   10440 NPrTT=   41973 LenC2=    9665 LenP2D=   27439.
 LDataN:  DoStor=T MaxTD1= 8 Len=  415
 NBasis=   444 RedAO= T EigKep=  1.53D-03  NBF=   444
 NBsUse=   444 1.00D-06 EigRej= -1.00D+00 NBFU=   444
 Precomputing XC quadrature grid using
 IXCGrd= 4 IRadAn=           0 IRanWt=          -1 IRanGd=           0 AccXCQ= 0.00D+00.
 Defaulting to unpruned grid for atomic number  83.
 Defaulting to unpruned grid for atomic number  83.
 Defaulting to unpruned grid for atomic number  83.
 Generated NRdTot=       0 NPtTot=           0 NUsed=           0 NTot=          32
 NSgBfM=   501   501   501   501   501 MxSgAt=     9 MxSgA2=     9.
 Leave Link  302 at Tue Mar  6 14:33:20 2018, MaxMem=   536870912 cpu:        26.0
 (Enter /share/apps//mg09/l303.exe)
 DipDrv:  MaxL=1.
 Leave Link  303 at Tue Mar  6 14:33:20 2018, MaxMem=   536870912 cpu:         0.3
 (Enter /share/apps//mg09/l401.exe)
 ExpMin= 4.62D-02 ExpMax= 4.66D+05 ExpMxC= 4.50D+03 IAcc=2 IRadAn=         4 AccDes= 0.00D+00
 Harris functional with IExCor= 1009 and IRadAn=       4 diagonalized for initial guess.
 HarFok:  IExCor= 1009 AccDes= 0.00D+00 IRadAn=         4 IDoV= 1 UseB2=F ITyADJ=14
 ICtDFT=  3500011 ScaDFX=  1.000000  1.000000  1.000000  1.000000
 Defaulting to unpruned grid for atomic number  83.
 Defaulting to unpruned grid for atomic number  83.
 Defaulting to unpruned grid for atomic number  83.
 Defaulting to unpruned grid for atomic number  83.
 FoFCou: FMM=F IPFlag=           0 FMFlag=      100000 FMFlg1=           0
         NFxFlg=           0 DoJE=T BraDBF=F KetDBF=T FulRan=T
         wScrn=  0.000000 ICntrl=     500 IOpCl=  0 I1Cent=   200000004 NGrid=           0
         NMat0=    1 NMatS0=      1 NMatT0=    0 NMatD0=    1 NMtDS0=    0 NMtDT0=    0
 Petite list used in FoFCou.
 Harris En= -7518.60512945139    
 JPrj=0 DoOrth=F DoCkMO=F.
 Leave Link  401 at Tue Mar  6 14:33:22 2018, MaxMem=   536870912 cpu:        10.0
 (Enter /share/apps//mg09/l502.exe)
 Closed shell SCF:
 Using DIIS extrapolation, IDIIS=  1040.
 Integral symmetry usage will be decided dynamically.
 IVT=     1410107 IEndB=     1410107 NGot=   536870912 MDV=   536322046
 LenX=   536322046 LenY=   536052166
 Requested convergence on RMS density matrix=1.00D-08 within 768 cycles.
 Requested convergence on MAX density matrix=1.00D-06.
 Requested convergence on             energy=1.00D-06.
 No special actions if energy rises.
 Fock matrices will be formed incrementally for  20 cycles.

 Cycle   1  Pass 1  IDiag  1:
 FoFJK:  IHMeth= 1 ICntrl=       0 DoSepK=F KAlg= 0 I1Cent=   0 FoldK=F
 IRaf= 880000000 NMat=   1 IRICut=       1 DoRegI=T DoRafI=F ISym2E= 0.
 FoFCou: FMM=F IPFlag=           0 FMFlag=      100000 FMFlg1=           0
         NFxFlg=           0 DoJE=F BraDBF=F KetDBF=F FulRan=T
         wScrn=  0.000000 ICntrl=       0 IOpCl=  0 I1Cent=           0 NGrid=           0
         NMat0=    1 NMatS0=      1 NMatT0=    0 NMatD0=    1 NMtDS0=    0 NMtDT0=    0
 Symmetry not used in FoFCou.
 Defaulting to unpruned grid for atomic number  83.
 Defaulting to unpruned grid for atomic number  83.
 Defaulting to unpruned grid for atomic number  83.
 Defaulting to unpruned grid for atomic number  83.
 E= -7517.25094680295    
 DIIS: error= 3.02D-02 at cycle   1 NSaved=   1.
 NSaved= 1 IEnMin= 1 EnMin= -7517.25094680295     IErMin= 1 ErrMin= 3.02D-02
 ErrMax= 3.02D-02  0.00D+00 EMaxC= 1.00D-01 BMatC= 1.45D+00 BMatP= 1.45D+00
 IDIUse=3 WtCom= 6.98D-01 WtEn= 3.02D-01
 Coeff-Com:  0.100D+01
 Coeff-En:   0.100D+01
 Coeff:      0.100D+01
 Gap=     0.126 Goal=   None    Shift=    0.000
 GapD=    0.126 DampG=1.000 DampE=0.500 DampFc=0.5000 IDamp=-1.
 Damping current iteration by 5.00D-01
 RMSDP=5.25D-03 MaxDP=2.09D-01              OVMax= 7.54D-01

 Cycle   2  Pass 1  IDiag  1:
 RMSU=  2.62D-03    CP:  1.01D+00
 E= -7517.19578265979     Delta-E=        0.055164143163 Rises=F Damp=T
 DIIS: error= 1.25D-02 at cycle   2 NSaved=   2.
 NSaved= 2 IEnMin= 1 EnMin= -7517.25094680295     IErMin= 2 ErrMin= 1.25D-02
 ErrMax= 1.25D-02  0.00D+00 EMaxC= 1.00D-01 BMatC= 2.29D-01 BMatP= 1.45D+00
 IDIUse=3 WtCom= 8.75D-01 WtEn= 1.25D-01
 Coeff-Com:  0.106D+00 0.894D+00
 Coeff-En:   0.538D+00 0.462D+00
 Coeff:      0.160D+00 0.840D+00
 Gap=    -0.009 Goal=   None    Shift=    0.000
 RMSDP=3.47D-03 MaxDP=1.41D-01 DE= 5.52D-02 OVMax= 5.62D-01

 Cycle   3  Pass 1  IDiag  1:
 RMSU=  2.80D-03    CP:  1.01D+00  2.20D-01
 E= -7516.23827534279     Delta-E=        0.957507316998 Rises=F Damp=F
 DIIS: error= 3.71D-02 at cycle   3 NSaved=   3.
 NSaved= 3 IEnMin= 1 EnMin= -7517.25094680295     IErMin= 2 ErrMin= 1.25D-02
 ErrMax= 3.71D-02  0.00D+00 EMaxC= 1.00D-01 BMatC= 1.22D+00 BMatP= 2.29D-01
 IDIUse=2 WtCom= 0.00D+00 WtEn= 1.00D+00
 EnCoef did    12 forward-backward iterations
 Coeff-En:   0.341D+00 0.521D+00 0.139D+00
 Coeff:      0.341D+00 0.521D+00 0.139D+00
 Gap=     0.175 Goal=   None    Shift=    0.000
 RMSDP=3.03D-03 MaxDP=1.08D-01 DE= 9.58D-01 OVMax= 3.70D-01

 Cycle   4  Pass 1  IDiag  1:
 RMSU=  1.27D-03    CP:  1.01D+00  8.36D-01  2.07D-01
 E= -7517.75467950943     Delta-E=       -1.516404166641 Rises=F Damp=F
 DIIS: error= 5.42D-03 at cycle   4 NSaved=   4.
 NSaved= 4 IEnMin= 4 EnMin= -7517.75467950943     IErMin= 4 ErrMin= 5.42D-03
 ErrMax= 5.42D-03  0.00D+00 EMaxC= 1.00D-01 BMatC= 1.08D-01 BMatP= 2.29D-01
 IDIUse=3 WtCom= 9.46D-01 WtEn= 5.42D-02
 Coeff-Com:  0.242D+00-0.169D+00-0.813D-02 0.935D+00
 Coeff-En:   0.407D-02 0.000D+00 0.000D+00 0.996D+00
 Coeff:      0.229D+00-0.160D+00-0.769D-02 0.938D+00
 Gap=     0.108 Goal=   None    Shift=    0.000
 RMSDP=8.32D-04 MaxDP=4.77D-02 DE=-1.52D+00 OVMax= 6.99D-02

 Cycle   5  Pass 1  IDiag  1:
 RMSU=  5.52D-04    CP:  1.00D+00  6.44D-01  1.53D-01  7.81D-01
 E= -7517.79521426820     Delta-E=       -0.040534758762 Rises=F Damp=F
 DIIS: error= 2.43D-03 at cycle   5 NSaved=   5.
 NSaved= 5 IEnMin= 5 EnMin= -7517.79521426820     IErMin= 5 ErrMin= 2.43D-03
 ErrMax= 2.43D-03  0.00D+00 EMaxC= 1.00D-01 BMatC= 1.50D-02 BMatP= 1.08D-01
 IDIUse=3 WtCom= 9.76D-01 WtEn= 2.43D-02
 Coeff-Com:  0.135D+00-0.186D+00-0.258D-01 0.571D+00 0.506D+00
 Coeff-En:   0.000D+00 0.000D+00 0.000D+00 0.589D-01 0.941D+00
 Coeff:      0.132D+00-0.182D+00-0.252D-01 0.559D+00 0.516D+00
 Gap=     0.119 Goal=   None    Shift=    0.000
 RMSDP=4.01D-04 MaxDP=2.93D-02 DE=-4.05D-02 OVMax= 4.21D-02

 Cycle   6  Pass 1  IDiag  1:
 RMSU=  2.27D-04    CP:  1.00D+00  6.22D-01  1.38D-01  8.45D-01  4.34D-01
 E= -7517.80705283928     Delta-E=       -0.011838571081 Rises=F Damp=F
 DIIS: error= 1.58D-03 at cycle   6 NSaved=   6.
 NSaved= 6 IEnMin= 6 EnMin= -7517.80705283928     IErMin= 6 ErrMin= 1.58D-03
 ErrMax= 1.58D-03  0.00D+00 EMaxC= 1.00D-01 BMatC= 2.56D-03 BMatP= 1.50D-02
 IDIUse=3 WtCom= 9.84D-01 WtEn= 1.58D-02
 Coeff-Com:  0.477D-01-0.839D-01 0.462D-02 0.210D+00 0.270D+00 0.552D+00
 Coeff-En:   0.000D+00 0.000D+00 0.000D+00 0.000D+00 0.940D-01 0.906D+00
 Coeff:      0.470D-01-0.825D-01 0.455D-02 0.207D+00 0.267D+00 0.558D+00
 Gap=     0.114 Goal=   None    Shift=    0.000
 RMSDP=1.63D-04 MaxDP=8.54D-03 DE=-1.18D-02 OVMax= 1.76D-02

 Cycle   7  Pass 1  IDiag  1:
 RMSU=  1.14D-04    CP:  1.00D+00  6.15D-01  1.62D-01  8.32D-01  5.00D-01
                    CP:  6.36D-01
 E= -7517.80912700155     Delta-E=       -0.002074162274 Rises=F Damp=F
 DIIS: error= 7.36D-04 at cycle   7 NSaved=   7.
 NSaved= 7 IEnMin= 7 EnMin= -7517.80912700155     IErMin= 7 ErrMin= 7.36D-04
 ErrMax= 7.36D-04  0.00D+00 EMaxC= 1.00D-01 BMatC= 8.00D-04 BMatP= 2.56D-03
 IDIUse=3 WtCom= 9.93D-01 WtEn= 7.36D-03
 Coeff-Com:  0.259D-01-0.491D-01 0.756D-02 0.114D+00 0.161D+00 0.422D+00
 Coeff-Com:  0.318D+00
 Coeff-En:   0.000D+00 0.000D+00 0.000D+00 0.000D+00 0.000D+00 0.219D+00
 Coeff-En:   0.781D+00
 Coeff:      0.257D-01-0.487D-01 0.751D-02 0.113D+00 0.160D+00 0.421D+00
 Coeff:      0.321D+00
 Gap=     0.113 Goal=   None    Shift=    0.000
 RMSDP=9.27D-05 MaxDP=4.06D-03 DE=-2.07D-03 OVMax= 9.80D-03

 Cycle   8  Pass 1  IDiag  1:
 RMSU=  4.37D-05    CP:  1.00D+00  6.14D-01  1.67D-01  8.30D-01  4.82D-01
                    CP:  7.45D-01  3.35D-01
 E= -7517.81013323716     Delta-E=       -0.001006235605 Rises=F Damp=F
 DIIS: error= 2.97D-04 at cycle   8 NSaved=   8.
 NSaved= 8 IEnMin= 8 EnMin= -7517.81013323716     IErMin= 8 ErrMin= 2.97D-04
 ErrMax= 2.97D-04  0.00D+00 EMaxC= 1.00D-01 BMatC= 8.00D-05 BMatP= 8.00D-04
 IDIUse=3 WtCom= 9.97D-01 WtEn= 2.97D-03
 Coeff-Com:  0.739D-02-0.148D-01 0.446D-02 0.303D-01 0.435D-01 0.136D+00
 Coeff-Com:  0.229D+00 0.564D+00
 Coeff-En:   0.000D+00 0.000D+00 0.000D+00 0.000D+00 0.000D+00 0.000D+00
 Coeff-En:   0.104D+00 0.896D+00
 Coeff:      0.736D-02-0.148D-01 0.444D-02 0.302D-01 0.434D-01 0.136D+00
 Coeff:      0.228D+00 0.565D+00
 Gap=     0.113 Goal=   None    Shift=    0.000
 RMSDP=2.97D-05 MaxDP=1.25D-03 DE=-1.01D-03 OVMax= 4.16D-03

 Cycle   9  Pass 1  IDiag  1:
 RMSU=  1.86D-05    CP:  1.00D+00  6.13D-01  1.70D-01  8.29D-01  4.81D-01
                    CP:  7.27D-01  4.91D-01  7.46D-01
 E= -7517.81020972986     Delta-E=       -0.000076492708 Rises=F Damp=F
 DIIS: error= 1.14D-04 at cycle   9 NSaved=   9.
 NSaved= 9 IEnMin= 9 EnMin= -7517.81020972986     IErMin= 9 ErrMin= 1.14D-04
 ErrMax= 1.14D-04  0.00D+00 EMaxC= 1.00D-01 BMatC= 2.28D-05 BMatP= 8.00D-05
 IDIUse=3 WtCom= 9.99D-01 WtEn= 1.14D-03
 Coeff-Com:  0.176D-02-0.391D-02 0.863D-03 0.482D-02 0.175D-02 0.131D-01
 Coeff-Com:  0.967D-01 0.405D+00 0.480D+00
 Coeff-En:   0.000D+00 0.000D+00 0.000D+00 0.000D+00 0.000D+00 0.000D+00
 Coeff-En:   0.000D+00 0.223D+00 0.777D+00
 Coeff:      0.175D-02-0.390D-02 0.862D-03 0.481D-02 0.174D-02 0.131D-01
 Coeff:      0.966D-01 0.405D+00 0.480D+00
 Gap=     0.113 Goal=   None    Shift=    0.000
 RMSDP=1.82D-05 MaxDP=6.73D-04 DE=-7.65D-05 OVMax= 3.03D-03

 Cycle  10  Pass 1  IDiag  1:
 RMSU=  1.12D-05    CP:  1.00D+00  6.13D-01  1.69D-01  8.28D-01  4.82D-01
                    CP:  7.23D-01  4.84D-01  8.48D-01  2.85D-01
 E= -7517.81021875905     Delta-E=       -0.000009029185 Rises=F Damp=F
 DIIS: error= 1.01D-04 at cycle  10 NSaved=  10.
 NSaved=10 IEnMin=10 EnMin= -7517.81021875905     IErMin=10 ErrMin= 1.01D-04
 ErrMax= 1.01D-04  0.00D+00 EMaxC= 1.00D-01 BMatC= 1.20D-05 BMatP= 2.28D-05
 IDIUse=3 WtCom= 9.99D-01 WtEn= 1.01D-03
 Coeff-Com:  0.170D-03-0.606D-03 0.624D-04-0.140D-02-0.644D-02-0.127D-01
 Coeff-Com:  0.416D-01 0.242D+00 0.418D+00 0.320D+00
 Coeff-En:   0.000D+00 0.000D+00 0.000D+00 0.000D+00 0.000D+00 0.000D+00
 Coeff-En:   0.000D+00 0.000D+00 0.419D+00 0.581D+00
 Coeff:      0.170D-03-0.605D-03 0.623D-04-0.140D-02-0.643D-02-0.126D-01
 Coeff:      0.415D-01 0.242D+00 0.418D+00 0.320D+00
 Gap=     0.113 Goal=   None    Shift=    0.000
 RMSDP=9.96D-06 MaxDP=5.06D-04 DE=-9.03D-06 OVMax= 1.56D-03

 Cycle  11  Pass 1  IDiag  1:
 RMSU=  3.71D-06    CP:  1.00D+00  6.13D-01  1.69D-01  8.28D-01  4.81D-01
                    CP:  7.25D-01  4.80D-01  8.49D-01  5.68D-01  3.31D-01
 E= -7517.81023413909     Delta-E=       -0.000015380043 Rises=F Damp=F
 DIIS: error= 1.84D-05 at cycle  11 NSaved=  11.
 NSaved=11 IEnMin=11 EnMin= -7517.81023413909     IErMin=11 ErrMin= 1.84D-05
 ErrMax= 1.84D-05  0.00D+00 EMaxC= 1.00D-01 BMatC= 6.09D-07 BMatP= 1.20D-05
 IDIUse=1 WtCom= 1.00D+00 WtEn= 0.00D+00
 Coeff-Com: -0.279D-03 0.512D-03 0.416D-04-0.213D-02-0.513D-02-0.110D-01
 Coeff-Com:  0.106D-01 0.895D-01 0.206D+00 0.217D+00 0.495D+00
 Coeff:     -0.279D-03 0.512D-03 0.416D-04-0.213D-02-0.513D-02-0.110D-01
 Coeff:      0.106D-01 0.895D-01 0.206D+00 0.217D+00 0.495D+00
 Gap=     0.113 Goal=   None    Shift=    0.000
 RMSDP=2.53D-06 MaxDP=1.15D-04 DE=-1.54D-05 OVMax= 2.97D-04

 Cycle  12  Pass 1  IDiag  1:
 RMSU=  1.38D-06    CP:  1.00D+00  6.13D-01  1.70D-01  8.28D-01  4.80D-01
                    CP:  7.26D-01  4.83D-01  8.50D-01  5.79D-01  4.48D-01
                    CP:  6.97D-01
 E= -7517.81023489745     Delta-E=       -0.000000758362 Rises=F Damp=F
 DIIS: error= 3.97D-06 at cycle  12 NSaved=  12.
 NSaved=12 IEnMin=12 EnMin= -7517.81023489745     IErMin=12 ErrMin= 3.97D-06
 ErrMax= 3.97D-06  0.00D+00 EMaxC= 1.00D-01 BMatC= 2.77D-08 BMatP= 6.09D-07
 IDIUse=1 WtCom= 1.00D+00 WtEn= 0.00D+00
 Coeff-Com: -0.778D-04 0.156D-03-0.367D-05-0.511D-03-0.121D-02-0.296D-02
 Coeff-Com:  0.295D-03 0.122D-01 0.398D-01 0.609D-01 0.245D+00 0.646D+00
 Coeff:     -0.778D-04 0.156D-03-0.367D-05-0.511D-03-0.121D-02-0.296D-02
 Coeff:      0.295D-03 0.122D-01 0.398D-01 0.609D-01 0.245D+00 0.646D+00
 Gap=     0.113 Goal=   None    Shift=    0.000
 RMSDP=5.77D-07 MaxDP=4.14D-05 DE=-7.58D-07 OVMax= 7.92D-05

 Cycle  13  Pass 1  IDiag  1:
 RMSU=  3.87D-07    CP:  1.00D+00  6.13D-01  1.70D-01  8.28D-01  4.80D-01
                    CP:  7.26D-01  4.83D-01  8.51D-01  5.82D-01  4.48D-01
                    CP:  7.77D-01  8.55D-01
 E= -7517.81023492710     Delta-E=       -0.000000029642 Rises=F Damp=F
 DIIS: error= 1.48D-06 at cycle  13 NSaved=  13.
 NSaved=13 IEnMin=13 EnMin= -7517.81023492710     IErMin=13 ErrMin= 1.48D-06
 ErrMax= 1.48D-06  0.00D+00 EMaxC= 1.00D-01 BMatC= 3.81D-09 BMatP= 2.77D-08
 IDIUse=1 WtCom= 1.00D+00 WtEn= 0.00D+00
 Coeff-Com: -0.336D-04 0.742D-04-0.144D-05-0.158D-03-0.259D-03-0.754D-03
 Coeff-Com: -0.586D-03 0.356D-03 0.521D-02 0.184D-01 0.952D-01 0.342D+00
 Coeff-Com:  0.541D+00
 Coeff:     -0.336D-04 0.742D-04-0.144D-05-0.158D-03-0.259D-03-0.754D-03
 Coeff:     -0.586D-03 0.356D-03 0.521D-02 0.184D-01 0.952D-01 0.342D+00
 Coeff:      0.541D+00
 Gap=     0.113 Goal=   None    Shift=    0.000
 RMSDP=2.07D-07 MaxDP=1.14D-05 DE=-2.96D-08 OVMax= 3.46D-05

 Cycle  14  Pass 1  IDiag  1:
 RMSU=  1.48D-07    CP:  1.00D+00  6.13D-01  1.70D-01  8.28D-01  4.80D-01
                    CP:  7.26D-01  4.83D-01  8.52D-01  5.81D-01  4.52D-01
                    CP:  7.95D-01  9.12D-01  8.64D-01
 E= -7517.81023493087     Delta-E=       -0.000000003776 Rises=F Damp=F
 DIIS: error= 8.08D-07 at cycle  14 NSaved=  14.
 NSaved=14 IEnMin=14 EnMin= -7517.81023493087     IErMin=14 ErrMin= 8.08D-07
 ErrMax= 8.08D-07  0.00D+00 EMaxC= 1.00D-01 BMatC= 7.09D-10 BMatP= 3.81D-09
 IDIUse=1 WtCom= 1.00D+00 WtEn= 0.00D+00
 Coeff-Com: -0.334D-05 0.104D-04-0.441D-05 0.170D-04 0.110D-03 0.188D-03
 Coeff-Com: -0.405D-03-0.220D-02-0.464D-02 0.471D-03 0.156D-01 0.977D-01
 Coeff-Com:  0.300D+00 0.593D+00
 Coeff:     -0.334D-05 0.104D-04-0.441D-05 0.170D-04 0.110D-03 0.188D-03
 Coeff:     -0.405D-03-0.220D-02-0.464D-02 0.471D-03 0.156D-01 0.977D-01
 Coeff:      0.300D+00 0.593D+00
 Gap=     0.113 Goal=   None    Shift=    0.000
 RMSDP=1.02D-07 MaxDP=5.82D-06 DE=-3.78D-09 OVMax= 1.96D-05

 Cycle  15  Pass 1  IDiag  1:
 RMSU=  4.85D-08    CP:  1.00D+00  6.13D-01  1.70D-01  8.28D-01  4.80D-01
                    CP:  7.26D-01  4.82D-01  8.52D-01  5.81D-01  4.55D-01
                    CP:  7.99D-01  9.33D-01  9.91D-01  7.75D-01
 E= -7517.81023493152     Delta-E=       -0.000000000651 Rises=F Damp=F
 DIIS: error= 1.40D-07 at cycle  15 NSaved=  15.
 NSaved=15 IEnMin=15 EnMin= -7517.81023493152     IErMin=15 ErrMin= 1.40D-07
 ErrMax= 1.40D-07  0.00D+00 EMaxC= 1.00D-01 BMatC= 6.64D-11 BMatP= 7.09D-10
 IDIUse=1 WtCom= 1.00D+00 WtEn= 0.00D+00
 Coeff-Com:  0.184D-06 0.692D-06-0.165D-05 0.217D-04 0.907D-04 0.205D-03
 Coeff-Com: -0.877D-04-0.112D-02-0.309D-02-0.281D-02-0.702D-02-0.644D-02
 Coeff-Com:  0.666D-01 0.306D+00 0.647D+00
 Coeff:      0.184D-06 0.692D-06-0.165D-05 0.217D-04 0.907D-04 0.205D-03
 Coeff:     -0.877D-04-0.112D-02-0.309D-02-0.281D-02-0.702D-02-0.644D-02
 Coeff:      0.666D-01 0.306D+00 0.647D+00
 Gap=     0.113 Goal=   None    Shift=    0.000
 RMSDP=4.10D-08 MaxDP=2.23D-06 DE=-6.51D-10 OVMax= 9.25D-06

 Cycle  16  Pass 1  IDiag  1:
 RMSU=  1.73D-08    CP:  1.00D+00  6.13D-01  1.70D-01  8.28D-01  4.80D-01
                    CP:  7.26D-01  4.82D-01  8.52D-01  5.82D-01  4.55D-01
                    CP:  8.03D-01  9.44D-01  1.00D+00  9.23D-01  9.54D-01
 E= -7517.81023493177     Delta-E=       -0.000000000247 Rises=F Damp=F
 DIIS: error= 5.27D-08 at cycle  16 NSaved=  16.
 NSaved=16 IEnMin=16 EnMin= -7517.81023493177     IErMin=16 ErrMin= 5.27D-08
 ErrMax= 5.27D-08  0.00D+00 EMaxC= 1.00D-01 BMatC= 5.14D-12 BMatP= 6.64D-11
 IDIUse=1 WtCom= 1.00D+00 WtEn= 0.00D+00
 Coeff-Com:  0.822D-07-0.260D-06 0.253D-07 0.571D-05 0.260D-04 0.550D-04
 Coeff-Com: -0.150D-04-0.281D-03-0.832D-03-0.108D-02-0.348D-02-0.116D-01
 Coeff-Com: -0.346D-03 0.536D-01 0.262D+00 0.702D+00
 Coeff:      0.822D-07-0.260D-06 0.253D-07 0.571D-05 0.260D-04 0.550D-04
 Coeff:     -0.150D-04-0.281D-03-0.832D-03-0.108D-02-0.348D-02-0.116D-01
 Coeff:     -0.346D-03 0.536D-01 0.262D+00 0.702D+00
 Gap=     0.113 Goal=   None    Shift=    0.000
 RMSDP=1.25D-08 MaxDP=6.10D-07 DE=-2.47D-10 OVMax= 2.48D-06

 Cycle  17  Pass 1  IDiag  1:
 RMSU=  6.85D-09    CP:  1.00D+00  6.13D-01  1.70D-01  8.28D-01  4.80D-01
                    CP:  7.26D-01  4.82D-01  8.52D-01  5.82D-01  4.55D-01
                    CP:  8.04D-01  9.46D-01  1.02D+00  9.29D-01  1.05D+00
                    CP:  9.03D-01
 E= -7517.81023493183     Delta-E=       -0.000000000060 Rises=F Damp=F
 DIIS: error= 3.22D-08 at cycle  17 NSaved=  17.
 NSaved=17 IEnMin=17 EnMin= -7517.81023493183     IErMin=17 ErrMin= 3.22D-08
 ErrMax= 3.22D-08  0.00D+00 EMaxC= 1.00D-01 BMatC= 1.17D-12 BMatP= 5.14D-12
 IDIUse=1 WtCom= 1.00D+00 WtEn= 0.00D+00
 Coeff-Com:  0.227D-07-0.268D-06 0.219D-06 0.220D-07 0.972D-06 0.140D-05
 Coeff-Com:  0.452D-05 0.603D-05-0.462D-04-0.182D-03-0.883D-03-0.544D-02
 Coeff-Com: -0.825D-02-0.961D-02 0.638D-01 0.397D+00 0.563D+00
 Coeff:      0.227D-07-0.268D-06 0.219D-06 0.220D-07 0.972D-06 0.140D-05
 Coeff:      0.452D-05 0.603D-05-0.462D-04-0.182D-03-0.883D-03-0.544D-02
 Coeff:     -0.825D-02-0.961D-02 0.638D-01 0.397D+00 0.563D+00
 Gap=     0.113 Goal=   None    Shift=    0.000
 RMSDP=4.45D-09 MaxDP=1.79D-07 DE=-6.00D-11 OVMax= 9.68D-07

 SCF Done:  E(RPBE1PBE) =  -7517.81023493     A.U. after   17 cycles
            NFock= 17  Conv=0.44D-08     -V/T= 2.1285
 KE= 6.661973136830D+03 PE=-2.467780881411D+04 EE= 6.954839489671D+03
 Leave Link  502 at Tue Mar  6 14:45:59 2018, MaxMem=   536870912 cpu:      3021.8
 (Enter /share/apps//mg09/l601.exe)
 Copying SCF densities to generalized density rwf, IOpCl= 0 IROHF=0.

 **********************************************************************

            Population analysis using the SCF density.

 **********************************************************************

 Orbital symmetries:
       Occupied  (A) (A) (A) (A) (A) (A) (A) (A) (A) (A) (A) (A)
                 (A) (A) (A) (A) (A) (A) (A) (A) (A) (A) (A) (A)
                 (A) (A) (A) (A) (A) (A) (A) (A) (A) (A) (A) (A)
                 (A) (A) (A) (A) (A) (A) (A) (A) (A) (A) (A) (A)
                 (A) (A) (A) (A) (A) (A) (A) (A) (A) (A) (A) (A)
                 (A) (A) (A) (A) (A) (A) (A) (A) (A) (A) (A) (A)
                 (A) (A) (A) (A) (A) (A) (A) (A) (A) (A) (A) (A)
                 (A) (A) (A) (A) (A) (A) (A) (A) (A) (A) (A) (A)
                 (A) (A) (A) (A) (A) (A) (A) (A) (A) (A) (A) (A)
                 (A) (A) (A) (A) (A) (A) (A) (A)
       Virtual   (A) (A) (A) (A) (A) (A) (A) (A) (A) (A) (A) (A)
                 (A) (A) (A) (A) (A) (A) (A) (A) (A) (A) (A) (A)
                 (A) (A) (A) (A) (A) (A) (A) (A) (A) (A) (A) (A)
                 (A) (A) (A) (A) (A) (A) (A) (A) (A) (A) (A) (A)
                 (A) (A) (A) (A) (A) (A) (A) (A) (A) (A) (A) (A)
                 (A) (A) (A) (A) (A) (A) (A) (A) (A) (A) (A) (A)
                 (A) (A) (A) (A) (A) (A) (A) (A) (A) (A) (A) (A)
                 (A) (A) (A) (A) (A) (A) (A) (A) (A) (A) (A) (A)
                 (A) (A) (A) (A) (A) (A) (A) (A) (A) (A) (A) (A)
                 (A) (A) (A) (A) (A) (A) (A) (A) (A) (A) (A) (A)
                 (A) (A) (A) (A) (A) (A) (A) (A) (A) (A) (A) (A)
                 (A) (A) (A) (A) (A) (A) (A) (A) (A) (A) (A) (A)
                 (A) (A) (A) (A) (A) (A) (A) (A) (A) (A) (A) (A)
                 (A) (A) (A) (A) (A) (A) (A) (A) (A) (A) (A) (A)
                 (A) (A) (A) (A) (A) (A) (A) (A) (A) (A) (A) (A)
                 (A) (A) (A) (A) (A) (A) (A) (A) (A) (A) (A) (A)
                 (A) (A) (A) (A) (A) (A) (A) (A) (A) (A) (A) (A)
                 (A) (A) (A) (A) (A) (A) (A) (A) (A) (A) (A) (A)
                 (A) (A) (A) (A) (A) (A) (A) (A) (A) (A) (A) (A)
                 (A) (A) (A) (A) (A) (A) (A) (A) (A) (A) (A) (A)
                 (A) (A) (A) (A) (A) (A) (A) (A) (A) (A) (A) (A)
                 (A) (A) (A) (A) (A) (A) (A) (A) (A) (A) (A) (A)
                 (A) (A) (A) (A) (A) (A) (A) (A) (A) (A) (A) (A)
                 (A) (A) (A) (A) (A) (A) (A) (A) (A) (A) (A) (A)
                 (A) (A) (A) (A) (A) (A) (A) (A) (A) (A) (A) (A)
                 (A) (A) (A) (A) (A) (A) (A) (A) (A) (A) (A) (A)
                 (A) (A) (A) (A) (A) (A) (A) (A) (A) (A) (A) (A)
                 (A) (A) (A) (A)
 The electronic state is 1-A.
 Alpha  occ. eigenvalues -- -399.09773-399.09282-399.08761 -49.91319 -49.90889
 Alpha  occ. eigenvalues --  -49.90364 -44.39406 -44.39374 -44.39349 -44.38963
 Alpha  occ. eigenvalues --  -44.38947 -44.38911 -44.38449 -44.38431 -44.38369
 Alpha  occ. eigenvalues --   -6.27817  -6.27400  -6.26870  -6.02305  -6.02009
 Alpha  occ. eigenvalues --   -6.01988  -6.01518  -5.14043  -5.13077  -4.43272
 Alpha  occ. eigenvalues --   -4.43158  -4.43073  -4.42841  -4.42771  -4.42652
 Alpha  occ. eigenvalues --   -4.42342  -4.42274  -4.42062  -3.74632  -3.74407
 Alpha  occ. eigenvalues --   -3.74326  -3.74307  -3.74305  -3.74192  -3.74061
 Alpha  occ. eigenvalues --   -3.73998  -3.73940  -3.73806  -3.73674  -3.73468
 Alpha  occ. eigenvalues --   -3.47285  -3.47197  -3.46988  -3.46323  -3.46242
 Alpha  occ. eigenvalues --   -3.46015  -1.22713  -1.22704  -1.22632  -1.22541
 Alpha  occ. eigenvalues --   -1.22519  -1.22302  -1.22282  -1.22197  -1.22124
 Alpha  occ. eigenvalues --   -1.22099  -1.21825  -1.21813  -1.21630  -1.21556
 Alpha  occ. eigenvalues --   -1.21531  -1.08668  -1.08359  -1.08299  -1.08220
 Alpha  occ. eigenvalues --   -1.08074  -1.07963  -1.07934  -1.07920  -1.07869
 Alpha  occ. eigenvalues --   -1.07822  -1.07729  -1.07624  -1.07589  -1.07542
 Alpha  occ. eigenvalues --   -1.07460  -1.07282  -1.07159  -1.07116  -1.07004
 Alpha  occ. eigenvalues --   -1.06949  -1.03474  -1.03465  -1.03275  -1.03208
 Alpha  occ. eigenvalues --   -1.03195  -1.02534  -1.02530  -1.02332  -1.02267
 Alpha  occ. eigenvalues --   -1.02212  -0.66794  -0.62387  -0.60576  -0.54699
 Alpha  occ. eigenvalues --   -0.51768  -0.47970  -0.43413  -0.41504  -0.40789
 Alpha  occ. eigenvalues --   -0.28987  -0.27772  -0.27311  -0.25488  -0.24828
 Alpha  occ. eigenvalues --   -0.24087  -0.23449  -0.22729  -0.22276  -0.21153
 Alpha  occ. eigenvalues --   -0.19205
 Alpha virt. eigenvalues --   -0.07931  -0.07468  -0.07025  -0.06698  -0.06026
 Alpha virt. eigenvalues --   -0.05618  -0.05296  -0.04646  -0.04543  -0.03806
 Alpha virt. eigenvalues --   -0.03003  -0.02181  -0.01195   0.03916   0.05132
 Alpha virt. eigenvalues --    0.05369   0.06259   0.07947   0.08616   0.08875
 Alpha virt. eigenvalues --    0.09273   0.09642   0.09836   0.10167   0.10464
 Alpha virt. eigenvalues --    0.10662   0.11228   0.11484   0.12171   0.12656
 Alpha virt. eigenvalues --    0.14427   0.15640   0.16475   0.16922   0.17150
 Alpha virt. eigenvalues --    0.17560   0.18383   0.19228   0.19671   0.20514
 Alpha virt. eigenvalues --    0.21127   0.21182   0.21918   0.23249   0.23718
 Alpha virt. eigenvalues --    0.24892   0.25866   0.26539   0.28245   0.29021
 Alpha virt. eigenvalues --    0.29403   0.30370   0.30481   0.31173   0.31463
 Alpha virt. eigenvalues --    0.31561   0.31714   0.32282   0.32421   0.33494
 Alpha virt. eigenvalues --    0.34240   0.35591   0.36006   0.36822   0.37521
 Alpha virt. eigenvalues --    0.38387   0.39898   0.40536   0.41414   0.41974
 Alpha virt. eigenvalues --    0.42662   0.42833   0.43456   0.44669   0.44898
 Alpha virt. eigenvalues --    0.45369   0.45872   0.46644   0.47639   0.48369
 Alpha virt. eigenvalues --    0.48726   0.49494   0.49623   0.50737   0.51167
 Alpha virt. eigenvalues --    0.51765   0.53553   0.54232   0.54751   0.55170
 Alpha virt. eigenvalues --    0.55748   0.57109   0.57930   0.58369   0.58893
 Alpha virt. eigenvalues --    0.61024   0.61471   0.61738   0.62267   0.62919
 Alpha virt. eigenvalues --    0.63606   0.63827   0.64632   0.65584   0.65930
 Alpha virt. eigenvalues --    0.66309   0.66797   0.68082   0.68634   0.69094
 Alpha virt. eigenvalues --    0.70378   0.71157   0.72067   0.72710   0.73514
 Alpha virt. eigenvalues --    0.74718   0.76003   0.76517   0.77645   0.78181
 Alpha virt. eigenvalues --    0.78473   0.79332   0.80940   0.81823   0.82631
 Alpha virt. eigenvalues --    0.83196   0.83930   0.84107   0.84999   0.85913
 Alpha virt. eigenvalues --    0.85933   0.87125   0.87325   0.88403   0.90059
 Alpha virt. eigenvalues --    0.90187   0.90560   0.90933   0.92313   0.93321
 Alpha virt. eigenvalues --    0.93690   0.95448   0.96350   0.97151   0.97310
 Alpha virt. eigenvalues --    0.97889   0.98450   0.98820   0.99297   1.00869
 Alpha virt. eigenvalues --    1.01705   1.02409   1.05157   1.05583   1.06892
 Alpha virt. eigenvalues --    1.07987   1.08783   1.10231   1.12491   1.13047
 Alpha virt. eigenvalues --    1.13872   1.14445   1.15188   1.16604   1.17310
 Alpha virt. eigenvalues --    1.18410   1.18789   1.19549   1.19663   1.20107
 Alpha virt. eigenvalues --    1.20754   1.21127   1.21507   1.21641   1.22874
 Alpha virt. eigenvalues --    1.23091   1.23770   1.24367   1.24585   1.25099
 Alpha virt. eigenvalues --    1.25297   1.25449   1.26360   1.26733   1.27323
 Alpha virt. eigenvalues --    1.27464   1.27845   1.28373   1.29005   1.29929
 Alpha virt. eigenvalues --    1.30512   1.31093   1.31811   1.32157   1.33414
 Alpha virt. eigenvalues --    1.33989   1.35032   1.36607   1.38197   1.38347
 Alpha virt. eigenvalues --    1.39308   1.39805   1.40432   1.42094   1.42561
 Alpha virt. eigenvalues --    1.44684   1.45876   1.47023   1.47906   1.47989
 Alpha virt. eigenvalues --    1.49422   1.50195   1.51198   1.52326   1.53350
 Alpha virt. eigenvalues --    1.53486   1.54175   1.55397   1.59180   1.60316
 Alpha virt. eigenvalues --    1.62651   1.67932   1.69323   2.03649   2.05252
 Alpha virt. eigenvalues --    2.08745   2.10433   2.11034   2.13289   2.15744
 Alpha virt. eigenvalues --    2.17983   2.18255   2.18864   2.20100   2.21628
 Alpha virt. eigenvalues --    2.22268   2.22586   2.23905   2.24324   2.25663
 Alpha virt. eigenvalues --    2.26503   2.28727   2.29702   2.30788   2.31321
 Alpha virt. eigenvalues --    2.32146   2.34146   2.38740   2.39084   2.39752
 Alpha virt. eigenvalues --    2.39940   2.41628   2.42644   2.45684   2.47344
 Alpha virt. eigenvalues --    2.49543   2.50344   2.51730   2.53117   2.54015
 Alpha virt. eigenvalues --    2.56127   2.57946   2.59529   2.63115   2.66741
 Alpha virt. eigenvalues --    2.67797   2.69140   2.70567   2.71602   2.74120
 Alpha virt. eigenvalues --    2.75984   2.77736   2.80134   2.80615   2.81211
 Alpha virt. eigenvalues --    2.82308   2.83537   2.88618   2.94492   2.97144
 Alpha virt. eigenvalues --    3.18603   3.23130   3.34736   3.35775   3.39327
 Alpha virt. eigenvalues --    3.42390   3.97230   3.98532   3.99472   4.00347
 Alpha virt. eigenvalues --    4.01445   4.04660   4.05860   4.08717   4.09395
 Alpha virt. eigenvalues --    5.30212   5.33070   5.37837  35.38002  35.39771
 Alpha virt. eigenvalues --   35.41246  35.43925  35.45562  35.46408  35.48882
 Alpha virt. eigenvalues --   35.51326  35.53680  35.55997  35.60459  35.62332
 Alpha virt. eigenvalues --   35.88190  35.93305  35.96188  36.07074  36.21008
 Alpha virt. eigenvalues --   36.21402  36.92725  36.93539  37.02665  37.04420
 Alpha virt. eigenvalues --   37.06943  37.12246 113.57420 113.58420 120.22456
 Alpha virt. eigenvalues --  120.23522 120.23957 120.25556
          Condensed to atoms (all electrons):
               1          2          3          4          5          6
     1  Bi  22.341484  -0.023030   0.135435  -0.025615   0.192566  -0.002044
     2  Ge  -0.023030  31.542026  -0.022751   0.130370  -0.016717   0.121235
     3  Sn   0.135435  -0.022751  21.399535   0.036724   0.140772  -0.017015
     4  Bi  -0.025615   0.130370   0.036724  22.262325   0.168047   0.154140
     5  Bi   0.192566  -0.016717   0.140772   0.168047  22.479211   0.138516
     6  Sn  -0.002044   0.121235  -0.017015   0.154140   0.138516  21.362512
     7  Bi   0.157426   0.109558   0.091693  -0.028234  -0.021339  -0.023948
     8  Ge   0.170575   0.128541  -0.015403  -0.019593  -0.014658   0.198630
     9  Ge  -0.017214   0.100176   0.178563   0.190359  -0.014206  -0.014084
               7          8          9
     1  Bi   0.157426   0.170575  -0.017214
     2  Ge   0.109558   0.128541   0.100176
     3  Sn   0.091693  -0.015403   0.178563
     4  Bi  -0.028234  -0.019593   0.190359
     5  Bi  -0.021339  -0.014658  -0.014206
     6  Sn  -0.023948   0.198630  -0.014084
     7  Bi  22.234380   0.147341   0.171201
     8  Ge   0.147341  31.605426  -0.013702
     9  Ge   0.171201  -0.013702  31.628472
 Mulliken charges:
               1
     1  Bi   0.070417
     2  Ge  -0.069407
     3  Sn   0.072446
     4  Bi   0.131477
     5  Bi  -0.052193
     6  Sn   0.082058
     7  Bi   0.161923
     8  Ge  -0.187156
     9  Ge  -0.209564
 Sum of Mulliken charges =   0.00000
 Mulliken charges with hydrogens summed into heavy atoms:
               1
     1  Bi   0.070417
     2  Ge  -0.069407
     3  Sn   0.072446
     4  Bi   0.131477
     5  Bi  -0.052193
     6  Sn   0.082058
     7  Bi   0.161923
     8  Ge  -0.187156
     9  Ge  -0.209564
 Electronic spatial extent (au):  <R**2>=           6112.4075
 Charge=              0.0000 electrons
 Dipole moment (field-independent basis, Debye):
    X=              0.2352    Y=             -1.2620    Z=             -1.0694  Tot=              1.6708
 Quadrupole moment (field-independent basis, Debye-Ang):
   XX=           -213.9482   YY=           -218.5888   ZZ=           -222.5106
   XY=              0.0358   XZ=              0.3870   YZ=             -0.9889
 Traceless Quadrupole moment (field-independent basis, Debye-Ang):
   XX=              4.4010   YY=             -0.2396   ZZ=             -4.1614
   XY=              0.0358   XZ=              0.3870   YZ=             -0.9889
 Octapole moment (field-independent basis, Debye-Ang**2):
  XXX=              5.4453  YYY=            -96.6093  ZZZ=            -48.1082  XYY=              5.4982
  XXY=            -19.9009  XXZ=            -23.0931  XZZ=              9.1613  YZZ=            -26.4183
  YYZ=            -10.1730  XYZ=              0.1575
 Hexadecapole moment (field-independent basis, Debye-Ang**3):
 XXXX=          -3370.6520 YYYY=          -3158.5562 ZZZZ=          -3067.4994 XXXY=              4.1341
 XXXZ=            -50.8863 YYYX=             32.2324 YYYZ=             -6.3959 ZZZX=            -25.0279
 ZZZY=            -11.7228 XXYY=          -1066.5006 XXZZ=          -1109.4612 YYZZ=          -1056.3198
 XXYZ=            -11.0527 YYXZ=            -27.5118 ZZXY=              4.0501
 N-N= 3.543185952677D+03 E-N=-2.467780884242D+04  KE= 6.661973136830D+03
 No NMR shielding tensors so no spin-rotation constants.
 Leave Link  601 at Tue Mar  6 14:45:59 2018, MaxMem=   536870912 cpu:         1.1
 (Enter /share/apps//mg09/l701.exe)
 Compute integral first derivatives.
 ... and contract with generalized density number  0.
   1 Symmetry operations used in ECPInt.
 ECPInt:  NShTT=   10440 NPrTT=   41973 LenC2=    9665 LenP2D=   27439.
 LDataN:  DoStor=T MaxTD1= 9 Len=  602
 Leave Link  701 at Tue Mar  6 14:46:16 2018, MaxMem=   536870912 cpu:        65.2
 (Enter /share/apps//mg09/l702.exe)
 L702 exits ... SP integral derivatives will be done elsewhere.
 Leave Link  702 at Tue Mar  6 14:46:16 2018, MaxMem=   536870912 cpu:         0.1
 (Enter /share/apps//mg09/l703.exe)
 Compute integral first derivatives, UseDBF=F ICtDFT=           0.
 Integral derivatives from FoFJK, PRISM(SPDF).
 Calling FoFJK, ICntrl=      2127 FMM=F ISym2X=0 I1Cent= 0 IOpClX= 0 NMat=1 NMatS=1 NMatT=0.
 FoFJK:  IHMeth= 1 ICntrl=    2127 DoSepK=F KAlg= 0 I1Cent=   0 FoldK=F
 IRaf=         0 NMat=   1 IRICut=       1 DoRegI=T DoRafI=F ISym2E= 0.
 FoFCou: FMM=F IPFlag=           0 FMFlag=      100000 FMFlg1=         800
         NFxFlg=           0 DoJE=F BraDBF=F KetDBF=F FulRan=T
         wScrn=  0.000000 ICntrl=    2127 IOpCl=  0 I1Cent=           0 NGrid=           0
         NMat0=    1 NMatS0=      1 NMatT0=    0 NMatD0=    1 NMtDS0=    0 NMtDT0=    0
 Symmetry not used in FoFCou.
 Defaulting to unpruned grid for atomic number  83.
 Defaulting to unpruned grid for atomic number  83.
 Defaulting to unpruned grid for atomic number  83.
 Defaulting to unpruned grid for atomic number  83.
 Leave Link  703 at Tue Mar  6 14:49:02 2018, MaxMem=   536870912 cpu:       664.2
 (Enter /share/apps//mg09/l716.exe)
 Dipole        = 9.25300169D-02-4.96506963D-01-4.20744333D-01
 ***** Axes restored to original set *****
 -------------------------------------------------------------------
 Center     Atomic                   Forces (Hartrees/Bohr)
 Number     Number              X              Y              Z
 -------------------------------------------------------------------
      1       83           0.003747158    0.007798926    0.000902976
      2       32          -0.000171978   -0.013201115   -0.006968381
      3       50           0.001267616    0.004556349    0.010350910
      4       83          -0.009932550   -0.002035246    0.002917364
      5       83          -0.004596408    0.005008142    0.001126109
      6       50          -0.009769209    0.004127641   -0.008368972
      7       83           0.011092174   -0.000276563    0.002015899
      8       32           0.007291424    0.004927478   -0.011533736
      9       32           0.001071773   -0.010905611    0.009557832
 -------------------------------------------------------------------
 Cartesian Forces:  Max     0.013201115 RMS     0.006987893
 Force constants in Cartesian coordinates: 
                1             2             3             4             5 
      1  0.119797D+00
      2  0.184080D-01  0.165357D+00
      3 -0.157672D-01  0.631475D-02  0.118310D+00
      4  0.377619D-02  0.179215D-02  0.114084D-02  0.157335D+00
      5 -0.739184D-02 -0.515411D-02 -0.140937D-02 -0.121792D-03  0.212926D+00
      6 -0.253737D-02 -0.501670D-02  0.523432D-02 -0.354169D-02  0.359597D-01
      7 -0.145276D-01 -0.611835D-02  0.154538D-01  0.774919D-02 -0.486485D-03
      8 -0.661253D-02 -0.323286D-01  0.265628D-01  0.515746D-03  0.881789D-03
      9 -0.176130D-02 -0.709551D-02 -0.471807D-01 -0.642090D-03 -0.114701D-01
     10 -0.542859D-03 -0.849500D-02 -0.145952D-02 -0.505113D-01 -0.972244D-02
     11 -0.263003D-02 -0.631272D-03 -0.169524D-02  0.208097D-01 -0.366426D-01
     12  0.351821D-02  0.429004D-02  0.335272D-02  0.318735D-01 -0.335534D-02
     13 -0.557777D-01  0.126570D-01  0.742291D-02  0.270052D-02  0.785191D-02
     14 -0.210661D-01 -0.274837D-01  0.117758D-02 -0.424641D-03 -0.270109D-02
     15  0.123459D-01 -0.565697D-02 -0.183037D-01 -0.107771D-02 -0.357436D-02
     16 -0.144153D-02 -0.381285D-02 -0.617275D-02 -0.250102D-01  0.569297D-02
     17 -0.569799D-02 -0.777336D-03 -0.131519D-02  0.262432D-01 -0.443232D-01
     18 -0.618944D-02  0.138791D-04  0.639841D-03  0.108003D-02 -0.133005D-01
     19 -0.343133D-01 -0.540884D-02  0.204046D-02 -0.505416D-01  0.625915D-02
     20  0.307305D-01 -0.521206D-01  0.786579D-02 -0.254806D-01 -0.367591D-01
     21  0.116800D-03  0.431296D-02 -0.155974D-01 -0.251381D-01 -0.941443D-02
     22 -0.220738D-01 -0.877858D-02  0.190610D-03 -0.265156D-01 -0.407570D-02
     23 -0.575653D-04 -0.428719D-01 -0.394114D-01 -0.217572D-01 -0.534323D-01
     24  0.101876D-01 -0.361813D-02 -0.510732D-01  0.771110D-03 -0.137022D-01
     25  0.510412D-02 -0.243594D-03 -0.284908D-02 -0.189826D-01  0.199422D-02
     26 -0.568256D-02 -0.398911D-02  0.191030D-02 -0.157659D-02 -0.347958D-01
     27  0.868493D-04  0.645567D-02  0.461792D-02 -0.446583D-02  0.202667D-01
                6             7             8             9            10 
      6  0.186567D+00
      7 -0.121508D-02  0.107877D+00
      8 -0.350166D-02 -0.439092D-02  0.133165D+00
      9 -0.488248D-02  0.101301D-01  0.146374D-01  0.197624D+00
     10  0.109131D-01 -0.234256D-01 -0.673677D-02  0.108974D-01  0.220334D+00
     11 -0.201379D-01 -0.136798D-01 -0.123086D-01  0.221577D-02  0.117431D-01
     12 -0.388359D-01 -0.157304D-01 -0.107227D-01 -0.247409D-01 -0.178315D-01
     13  0.347729D-02 -0.318662D-01  0.177304D-01 -0.178991D-02 -0.307165D-01
     14 -0.496446D-02  0.754443D-02 -0.286523D-01 -0.988904D-02  0.124604D-01
     15  0.386975D-02 -0.292254D-01  0.169895D-01 -0.389204D-01  0.236170D-02
     16 -0.126827D-01  0.286183D-02 -0.766022D-03 -0.774844D-02 -0.317226D-01
     17  0.157233D-01 -0.399849D-04  0.525647D-02  0.151252D-03  0.329578D-02
     18 -0.291702D-01  0.116687D-02 -0.270009D-03 -0.424643D-02 -0.114881D-01
     19 -0.464281D-02 -0.337763D-01  0.287313D-02 -0.113184D-01 -0.105194D-01
     20 -0.180176D-01  0.154891D-01 -0.174260D-01 -0.412954D-02  0.226275D-02
     21 -0.309154D-01  0.240094D-01 -0.118976D-01 -0.357100D-01 -0.520159D-03
     22  0.115303D-01  0.406977D-02 -0.417049D-03  0.548677D-02 -0.638238D-03
     23  0.230324D-01 -0.137038D-02  0.685078D-02  0.577262D-03 -0.268307D-02
     24 -0.359423D-01 -0.240660D-02 -0.225270D-02 -0.547184D-02  0.868948D-02
     25 -0.130112D-02 -0.189621D-01 -0.219598D-02 -0.325419D-02 -0.722575D-01
     26 -0.230772D-01  0.305234D-02 -0.554390D-01  0.150025D-01 -0.212474D-02
     27 -0.559248D-01 -0.218269D-02 -0.295449D-01 -0.364709D-01 -0.156245D-02
               11            12            13            14            15 
     11  0.161121D+00
     12 -0.217621D-01  0.150453D+00
     13 -0.241702D-01  0.221825D-03  0.135435D+00
     14 -0.587099D-01 -0.499499D-02 -0.273695D-01  0.140444D+00
     15  0.650867D-02 -0.172394D-01 -0.202156D-02  0.136413D-01  0.103678D+00
     16 -0.136300D-01  0.227442D-01 -0.222971D-01  0.107976D-01  0.666319D-02
     17 -0.267650D-01  0.250921D-01  0.692523D-03 -0.234149D-01 -0.278836D-01
     18  0.155774D-01 -0.486472D-01 -0.117499D-01  0.681842D-03 -0.417715D-01
     19 -0.510627D-02  0.369062D-02 -0.308019D-02  0.869076D-02  0.256136D-02
     20  0.573280D-02  0.760574D-03  0.133940D-02  0.185603D-02 -0.239019D-02
     21  0.874044D-03  0.764451D-02 -0.230346D-02  0.239736D-04  0.471766D-02
     22 -0.535242D-02  0.147061D-02  0.119831D-02  0.504482D-02  0.599619D-02
     23  0.539758D-02 -0.115733D-02  0.414929D-02  0.137542D-02  0.728558D-03
     24  0.418859D-02  0.481238D-03  0.658733D-02 -0.473198D-03 -0.641421D-03
     25  0.320159D-01 -0.299571D-01  0.440430D-02  0.432223D-02  0.239631D-02
     26 -0.371938D-01  0.118498D-01  0.711914D-02 -0.271345D-02  0.163711D-02
     27  0.142307D-01 -0.324679D-01  0.155525D-03  0.479696D-02  0.461144D-02
               16            17            18            19            20 
     16  0.131461D+00
     17 -0.151112D-01  0.990805D-01
     18  0.205198D-01 -0.143036D-01  0.151663D+00
     19 -0.266105D-02  0.724849D-03 -0.925493D-02  0.237427D+00
     20  0.460756D-02  0.530450D-02  0.256068D-02 -0.794275D-02  0.160319D+00
     21 -0.930918D-03 -0.174051D-02  0.252783D-02  0.962811D-02 -0.221837D-01
     22 -0.565024D-01 -0.851411D-02  0.200310D-01 -0.419072D-01  0.140689D-01
     23  0.911898D-02 -0.164571D-01  0.151541D-02  0.113980D-02 -0.256342D-01
     24 -0.158490D-01  0.246243D-02 -0.314758D-01  0.464553D-02  0.154970D-01
     25  0.531187D-02 -0.159317D-02 -0.411529D-02 -0.606275D-01 -0.350750D-01
     26  0.310292D-02  0.209608D-02  0.752487D-02 -0.122983D-02 -0.412724D-01
     27 -0.654336D-02  0.181376D-02  0.479970D-03  0.265002D-02  0.200370D-01
               21            22            23            24            25 
     21  0.168289D+00
     22 -0.353658D-01  0.135292D+00
     23  0.221924D-01  0.859012D-02  0.122160D+00
     24 -0.644561D-01 -0.149032D-01 -0.106130D-01  0.189664D+00
     25  0.305042D-01  0.707709D-02  0.287005D-02  0.227781D-02  0.148932D+00
     26  0.178329D-01 -0.566003D-03  0.261220D-02  0.851117D-02 -0.209468D-02
     27 -0.364999D-01  0.556350D-02  0.313562D-02 -0.108457D-02  0.629844D-02
               26            27 
     26  0.170695D+00
     27 -0.411914D-01  0.152739D+00
 Leave Link  716 at Tue Mar  6 14:49:02 2018, MaxMem=   536870912 cpu:         0.1
 (Enter /share/apps//mg09/l103.exe)

 GradGradGradGradGradGradGradGradGradGradGradGradGradGradGradGradGradGrad
 Berny optimization.
 Search for a local minimum.
 Step number   1 out of a maximum of  100
 All quantities printed in internal units (Hartrees-Bohrs-Radians)
 Second derivative matrix not updated -- first step.
 ITU=  0
     Eigenvalues ---    0.07988   0.11446   0.11832   0.12656   0.13221
     Eigenvalues ---    0.13902   0.14730   0.14880   0.15782   0.16928
     Eigenvalues ---    0.17823   0.21395   0.22583   0.23239   0.23866
     Eigenvalues ---    0.24527   0.27715   0.28546   0.29953   0.31336
     Eigenvalues ---    0.32039
 RFO step:  Lambda=-7.93525817D-03 EMin= 7.98822462D-02
 Linear search not attempted -- first point.
 TrRot=  0.001078 -0.001952 -0.000921 -0.000010  0.000067 -0.000010
 MatCor failed.
 Variable       Old X    -DE/DX   Delta X   Delta X   Delta X     New X
                                 (Linear)    (Quad)   (Total)
    X1       -2.42975   0.00375   0.00000   0.03546   0.03649  -2.39326
    Y1       -3.75593   0.00780   0.00000   0.05564   0.05373  -3.70220
    Z1        0.31866   0.00090   0.00000   0.00935   0.00859   0.32724
    X2       -0.25450  -0.00017   0.00000  -0.00230  -0.00096  -0.25546
    Y2        4.23710  -0.01320   0.00000  -0.06419  -0.06614   4.17096
    Z2        2.64330  -0.00697   0.00000  -0.03656  -0.03747   2.60583
    X3       -0.80824   0.00127   0.00000   0.00950   0.01027  -0.79797
    Y3       -0.71520   0.00456   0.00000   0.03005   0.02811  -0.68709
    Z3       -4.52278   0.01035   0.00000   0.06875   0.06788  -4.45490
    X4        3.85855  -0.00993   0.00000  -0.05434  -0.05326   3.80529
    Y4        2.53189  -0.00204   0.00000  -0.02408  -0.02611   2.50578
    Z4       -0.77802   0.00292   0.00000   0.01781   0.01664  -0.76138
    X5        3.10991  -0.00460   0.00000  -0.03693  -0.03598   3.07393
    Y5       -3.19791   0.00501   0.00000   0.04391   0.04189  -3.15602
    Z5       -0.90089   0.00113   0.00000   0.00971   0.00859  -0.89231
    X6        2.96028  -0.00977   0.00000  -0.06827  -0.06692   2.89336
    Y6       -0.19110   0.00413   0.00000   0.01552   0.01351  -0.17759
    Z6        4.21165  -0.00837   0.00000  -0.06046  -0.06157   4.15008
    X7       -4.49443   0.01109   0.00000   0.05622   0.05732  -4.43711
    Y7        1.66075  -0.00028   0.00000  -0.01137  -0.01324   1.64752
    Z7       -0.16654   0.00202   0.00000   0.00769   0.00706  -0.15948
    X8       -2.49543   0.00729   0.00000   0.04473   0.04610  -2.44932
    Y8       -0.20499   0.00493   0.00000   0.03240   0.03049  -0.17450
    Z8        4.57477  -0.01153   0.00000  -0.06655  -0.06731   4.50746
    X9       -0.72748   0.00107   0.00000   0.00595   0.00693  -0.72054
    Y9        4.54586  -0.01091   0.00000  -0.06032  -0.06226   4.48360
    Z9       -2.77181   0.00956   0.00000   0.05846   0.05759  -2.71422
         Item               Value     Threshold  Converged?
 Maximum Force            0.013201     0.000450     NO 
 RMS     Force            0.006988     0.000300     NO 
 Maximum Displacement     0.067885     0.001800     NO 
 RMS     Displacement     0.042723     0.001200     NO 
 Predicted change in Energy=-4.163398D-03
 Lowest energy point so far.  Saving SCF results.
 GradGradGradGradGradGradGradGradGradGradGradGradGradGradGradGradGradGrad

 Leave Link  103 at Tue Mar  6 14:49:02 2018, MaxMem=   536870912 cpu:         0.1
 (Enter /share/apps//mg09/l202.exe)
                          Input orientation:                          
 ---------------------------------------------------------------------
 Center     Atomic      Atomic             Coordinates (Angstroms)
 Number     Number       Type             X           Y           Z
 ---------------------------------------------------------------------
      1         83           0       -1.266457   -1.959120    0.173169
      2         32           0       -0.135184    2.207176    1.378946
      3         50           0       -0.422269   -0.363593   -2.357429
      4         83           0        2.013674    1.326003   -0.402904
      5         83           0        1.626652   -1.670093   -0.472188
      6         50           0        1.531099   -0.093975    2.196129
      7         83           0       -2.348017    0.871828   -0.084393
      8         32           0       -1.296126   -0.092341    2.385245
      9         32           0       -0.381294    2.372620   -1.436304
 ---------------------------------------------------------------------
                    Distance matrix (angstroms):
                    1          2          3          4          5
     1  Bi   0.000000
     2  Ge   4.482377   0.000000
     3  Sn   3.108421   4.544422   0.000000
     4  Bi   4.677944   2.927293   3.550876   0.000000
     5  Bi   2.978272   4.643703   3.075574   3.021784   0.000000
     6  Sn   3.923959   2.956278   4.962180   3.000698   3.100515
     7  Bi   3.041443   2.970041   3.225130   4.396825   4.733893
     8  Ge   2.894654   2.765539   4.830130   4.554147   4.381421
     9  Ge   4.705092   2.830826   2.887389   2.810551   4.615723
                    6          7          8          9
     6  Sn   0.000000
     7  Bi   4.602292   0.000000
     8  Ge   2.833543   2.852228   0.000000
     9  Ge   4.789145   2.819226   4.638662   0.000000
 Stoichiometry    Bi4Ge3Sn2
 Framework group  C1[X(Bi4Ge3Sn2)]
 Deg. of freedom    21
 Full point group                 C1      NOp   1
 RotChk:  IX=3 Diff= 1.48D-02
 Largest Abelian subgroup         C1      NOp   1
 Largest concise Abelian subgroup C1      NOp   1
                         Standard orientation:                         
 ---------------------------------------------------------------------
 Center     Atomic      Atomic             Coordinates (Angstroms)
 Number     Number       Type             X           Y           Z
 ---------------------------------------------------------------------
      1         83           0       -1.249186   -1.973347    0.170182
      2         32           0       -0.160594    2.206040    1.369929
      3         50           0       -0.406538   -0.377379   -2.360651
      4         83           0        2.004734    1.338958   -0.398847
      5         83           0        1.644431   -1.660610   -0.461704
      6         50           0        1.521797   -0.078096    2.201715
      7         83           0       -2.354317    0.847247   -0.100582
      8         32           0       -1.306235   -0.100853    2.376884
      9         32           0       -0.394199    2.361601   -1.446949
 ---------------------------------------------------------------------
 Rotational constants (GHZ):      0.1068522      0.0945153      0.0838637
 Leave Link  202 at Tue Mar  6 14:49:03 2018, MaxMem=   536870912 cpu:         0.0
 (Enter /share/apps//mg09/l301.exe)
 Standard basis: def2TZVP (5D, 7F)
 Ernie: Thresh=  0.10000D-02 Tol=  0.10000D-05 Strict=F.
 There are   519 symmetry adapted cartesian basis functions of A   symmetry.
 There are   444 symmetry adapted basis functions of A   symmetry.
   444 basis functions,   963 primitive gaussians,   519 cartesian basis functions
   116 alpha electrons      116 beta electrons
       nuclear repulsion energy      3598.5058328993 Hartrees.
 IExCor= 1009 DFT=T Ex+Corr=PBE1PBE ExCW=0 ScaHFX=  0.250000
 ScaDFX=  0.750000  0.750000  1.000000  1.000000 ScalE2=  1.000000  1.000000
 IRadAn=      0 IRanWt=     -1 IRanGd=            0 ICorTp=0 IEmpDi=  4
 NAtoms=    9 NActive=    9 NUniq=    9 SFac= 1.00D+00 NAtFMM=   60 NAOKFM=F Big=F
 Integral buffers will be    131072 words long.
 Raffenetti 2 integral format.
 Two-electron integral symmetry is turned on.
 Leave Link  301 at Tue Mar  6 14:49:03 2018, MaxMem=   536870912 cpu:         0.2
 (Enter /share/apps//mg09/l302.exe)
 NPDir=0 NMtPBC=     1 NCelOv=     1 NCel=       1 NClECP=     1 NCelD=      1
         NCelK=      1 NCelE2=     1 NClLst=     1 CellRange=     0.0.
 One-electron integrals computed using PRISM.
   1 Symmetry operations used in ECPInt.
 ECPInt:  NShTT=   10440 NPrTT=   41973 LenC2=    9693 LenP2D=   27619.
 LDataN:  DoStor=T MaxTD1= 8 Len=  415
 NBasis=   444 RedAO= T EigKep=  1.32D-03  NBF=   444
 NBsUse=   444 1.00D-06 EigRej= -1.00D+00 NBFU=   444
 Precomputing XC quadrature grid using
 IXCGrd= 4 IRadAn=           0 IRanWt=          -1 IRanGd=           0 AccXCQ= 0.00D+00.
 Defaulting to unpruned grid for atomic number  83.
 Defaulting to unpruned grid for atomic number  83.
 Defaulting to unpruned grid for atomic number  83.
 Generated NRdTot=       0 NPtTot=           0 NUsed=           0 NTot=          32
 NSgBfM=   500   500   500   500   500 MxSgAt=     9 MxSgA2=     9.
 Leave Link  302 at Tue Mar  6 14:49:10 2018, MaxMem=   536870912 cpu:        25.7
 (Enter /share/apps//mg09/l303.exe)
 DipDrv:  MaxL=1.
 Leave Link  303 at Tue Mar  6 14:49:10 2018, MaxMem=   536870912 cpu:         0.2
 (Enter /share/apps//mg09/l401.exe)
 Initial guess from the checkpoint file:  "Isomer_37.chk"
 B after Tr=     0.000000    0.000000    0.000000
         Rot=    0.999986    0.001354    0.002454   -0.004472 Ang=   0.60 deg.
 Guess basis will be translated and rotated to current coordinates.
 JPrj=2 DoOrth=T DoCkMO=T.
 Generating alternative initial guess.
 ExpMin= 4.62D-02 ExpMax= 4.66D+05 ExpMxC= 4.50D+03 IAcc=2 IRadAn=         4 AccDes= 0.00D+00
 Harris functional with IExCor= 1009 and IRadAn=       4 diagonalized for initial guess.
 HarFok:  IExCor= 1009 AccDes= 0.00D+00 IRadAn=         4 IDoV= 1 UseB2=F ITyADJ=14
 ICtDFT=  3500011 ScaDFX=  1.000000  1.000000  1.000000  1.000000
 Defaulting to unpruned grid for atomic number  83.
 Defaulting to unpruned grid for atomic number  83.
 Defaulting to unpruned grid for atomic number  83.
 Defaulting to unpruned grid for atomic number  83.
 FoFCou: FMM=F IPFlag=           0 FMFlag=      100000 FMFlg1=           0
         NFxFlg=           0 DoJE=T BraDBF=F KetDBF=T FulRan=T
         wScrn=  0.000000 ICntrl=     500 IOpCl=  0 I1Cent=   200000004 NGrid=           0
         NMat0=    1 NMatS0=      1 NMatT0=    0 NMatD0=    1 NMtDS0=    0 NMtDT0=    0
 Petite list used in FoFCou.
 Harris En= -7518.61593730747    
 Leave Link  401 at Tue Mar  6 14:49:13 2018, MaxMem=   536870912 cpu:        11.5
 (Enter /share/apps//mg09/l502.exe)
 Closed shell SCF:
 Using DIIS extrapolation, IDIIS=  1040.
 Integral symmetry usage will be decided dynamically.
 IVT=     1410107 IEndB=     1410107 NGot=   536870912 MDV=   536322046
 LenX=   536322046 LenY=   536052166
 Requested convergence on RMS density matrix=1.00D-08 within 768 cycles.
 Requested convergence on MAX density matrix=1.00D-06.
 Requested convergence on             energy=1.00D-06.
 No special actions if energy rises.
 Fock matrices will be formed incrementally for  20 cycles.

 Cycle   1  Pass 1  IDiag  1:
 FoFJK:  IHMeth= 1 ICntrl=       0 DoSepK=F KAlg= 0 I1Cent=   0 FoldK=F
 IRaf= 880000000 NMat=   1 IRICut=       1 DoRegI=T DoRafI=F ISym2E= 0.
 FoFCou: FMM=F IPFlag=           0 FMFlag=      100000 FMFlg1=           0
         NFxFlg=           0 DoJE=F BraDBF=F KetDBF=F FulRan=T
         wScrn=  0.000000 ICntrl=       0 IOpCl=  0 I1Cent=           0 NGrid=           0
         NMat0=    1 NMatS0=      1 NMatT0=    0 NMatD0=    1 NMtDS0=    0 NMtDT0=    0
 Symmetry not used in FoFCou.
 Defaulting to unpruned grid for atomic number  83.
 Defaulting to unpruned grid for atomic number  83.
 Defaulting to unpruned grid for atomic number  83.
 Defaulting to unpruned grid for atomic number  83.
 E= -7517.81464277451    
 DIIS: error= 6.02D-03 at cycle   1 NSaved=   1.
 NSaved= 1 IEnMin= 1 EnMin= -7517.81464277451     IErMin= 1 ErrMin= 6.02D-03
 ErrMax= 6.02D-03  0.00D+00 EMaxC= 1.00D-01 BMatC= 8.17D-03 BMatP= 8.17D-03
 IDIUse=3 WtCom= 9.40D-01 WtEn= 6.02D-02
 Coeff-Com:  0.100D+01
 Coeff-En:   0.100D+01
 Coeff:      0.100D+01
 Gap=     7.928 Goal=   None    Shift=    0.000
 GapD=    7.928 DampG=2.000 DampE=1.000 DampFc=2.0000 IDamp=-1.
 RMSDP=1.74D-04 MaxDP=4.46D-03              OVMax= 1.88D-02

 Cycle   2  Pass 1  IDiag  1:
 RMSU=  1.73D-04    CP:  1.00D+00
 E= -7517.81466829186     Delta-E=       -0.000025517342 Rises=F Damp=F
 DIIS: error= 1.29D-03 at cycle   2 NSaved=   2.
 NSaved= 2 IEnMin= 2 EnMin= -7517.81466829186     IErMin= 2 ErrMin= 1.29D-03
 ErrMax= 1.29D-03  0.00D+00 EMaxC= 1.00D-01 BMatC= 1.53D-03 BMatP= 8.17D-03
 IDIUse=3 WtCom= 9.87D-01 WtEn= 1.29D-02
 Coeff-Com:  0.196D+00 0.804D+00
 Coeff-En:   0.493D+00 0.507D+00
 Coeff:      0.200D+00 0.800D+00
 Gap=     0.115 Goal=   None    Shift=    0.000
 RMSDP=2.05D-04 MaxDP=8.77D-03 DE=-2.55D-05 OVMax= 1.64D-02

 Cycle   3  Pass 1  IDiag  1:
 RMSU=  1.86D-04    CP:  9.99D-01  5.29D-01
 E= -7517.81271694960     Delta-E=        0.001951342256 Rises=F Damp=F
 DIIS: error= 1.86D-03 at cycle   3 NSaved=   3.
 NSaved= 3 IEnMin= 2 EnMin= -7517.81466829186     IErMin= 2 ErrMin= 1.29D-03
 ErrMax= 1.86D-03  0.00D+00 EMaxC= 1.00D-01 BMatC= 3.72D-03 BMatP= 1.53D-03
 IDIUse=3 WtCom= 1.88D-01 WtEn= 8.12D-01
 Coeff-Com:  0.711D-02 0.608D+00 0.385D+00
 Coeff-En:   0.000D+00 0.672D+00 0.328D+00
 Coeff:      0.134D-02 0.660D+00 0.339D+00
 Gap=     0.116 Goal=   None    Shift=    0.000
 RMSDP=1.17D-04 MaxDP=5.19D-03 DE= 1.95D-03 OVMax= 1.21D-02

 Cycle   4  Pass 1  IDiag  1:
 RMSU=  4.47D-05    CP:  9.99D-01  7.94D-01  4.80D-01
 E= -7517.81569009114     Delta-E=       -0.002973141538 Rises=F Damp=F
 DIIS: error= 4.14D-04 at cycle   4 NSaved=   4.
 NSaved= 4 IEnMin= 4 EnMin= -7517.81569009114     IErMin= 4 ErrMin= 4.14D-04
 ErrMax= 4.14D-04  0.00D+00 EMaxC= 1.00D-01 BMatC= 2.22D-04 BMatP= 1.53D-03
 IDIUse=3 WtCom= 9.96D-01 WtEn= 4.14D-03
 Coeff-Com:  0.233D-05 0.442D+00 0.235D+00 0.323D+00
 Coeff-En:   0.000D+00 0.985D-01 0.000D+00 0.902D+00
 Coeff:      0.232D-05 0.440D+00 0.234D+00 0.326D+00
 Gap=     0.116 Goal=   None    Shift=    0.000
 RMSDP=3.87D-05 MaxDP=1.69D-03 DE=-2.97D-03 OVMax= 3.90D-03

 Cycle   5  Pass 1  IDiag  1:
 RMSU=  1.33D-05    CP:  9.99D-01  8.54D-01  4.38D-01  2.48D-01
 E= -7517.81587514116     Delta-E=       -0.000185050023 Rises=F Damp=F
 DIIS: error= 8.52D-05 at cycle   5 NSaved=   5.
 NSaved= 5 IEnMin= 5 EnMin= -7517.81587514116     IErMin= 5 ErrMin= 8.52D-05
 ErrMax= 8.52D-05  0.00D+00 EMaxC= 1.00D-01 BMatC= 1.18D-05 BMatP= 2.22D-04
 IDIUse=1 WtCom= 1.00D+00 WtEn= 0.00D+00
 Coeff-Com: -0.921D-03 0.214D+00 0.103D+00 0.229D+00 0.455D+00
 Coeff:     -0.921D-03 0.214D+00 0.103D+00 0.229D+00 0.455D+00
 Gap=     0.116 Goal=   None    Shift=    0.000
 RMSDP=9.19D-06 MaxDP=5.84D-04 DE=-1.85D-04 OVMax= 1.01D-03

 Cycle   6  Pass 1  IDiag  1:
 RMSU=  3.39D-06    CP:  9.99D-01  8.62D-01  4.30D-01  3.90D-01  6.31D-01
 E= -7517.81588731588     Delta-E=       -0.000012174722 Rises=F Damp=F
 DIIS: error= 1.17D-05 at cycle   6 NSaved=   6.
 NSaved= 6 IEnMin= 6 EnMin= -7517.81588731588     IErMin= 6 ErrMin= 1.17D-05
 ErrMax= 1.17D-05  0.00D+00 EMaxC= 1.00D-01 BMatC= 2.28D-07 BMatP= 1.18D-05
 IDIUse=1 WtCom= 1.00D+00 WtEn= 0.00D+00
 Coeff-Com: -0.355D-03 0.554D-01 0.274D-01 0.677D-01 0.181D+00 0.669D+00
 Coeff:     -0.355D-03 0.554D-01 0.274D-01 0.677D-01 0.181D+00 0.669D+00
 Gap=     0.116 Goal=   None    Shift=    0.000
 RMSDP=2.30D-06 MaxDP=1.02D-04 DE=-1.22D-05 OVMax= 3.62D-04

 Cycle   7  Pass 1  IDiag  1:
 RMSU=  1.94D-06    CP:  9.99D-01  8.66D-01  4.33D-01  3.89D-01  6.96D-01
                    CP:  9.01D-01
 E= -7517.81588730059     Delta-E=        0.000000015296 Rises=F Damp=F
 DIIS: error= 1.37D-05 at cycle   7 NSaved=   7.
 NSaved= 7 IEnMin= 6 EnMin= -7517.81588731588     IErMin= 6 ErrMin= 1.17D-05
 ErrMax= 1.37D-05  0.00D+00 EMaxC= 1.00D-01 BMatC= 2.24D-07 BMatP= 2.28D-07
 IDIUse=1 WtCom= 1.00D+00 WtEn= 0.00D+00
 Coeff-Com: -0.113D-03 0.415D-02 0.305D-02 0.125D-01 0.612D-01 0.528D+00
 Coeff-Com:  0.391D+00
 Coeff:     -0.113D-03 0.415D-02 0.305D-02 0.125D-01 0.612D-01 0.528D+00
 Coeff:      0.391D+00
 Gap=     0.116 Goal=   None    Shift=    0.000
 RMSDP=1.73D-06 MaxDP=7.24D-05 DE= 1.53D-08 OVMax= 2.69D-04

 Cycle   8  Pass 1  IDiag  1:
 RMSU=  9.17D-07    CP:  9.99D-01  8.67D-01  4.35D-01  3.89D-01  7.04D-01
                    CP:  1.10D+00  3.47D-01
 E= -7517.81588748680     Delta-E=       -0.000000186212 Rises=F Damp=F
 DIIS: error= 7.34D-06 at cycle   8 NSaved=   8.
 NSaved= 8 IEnMin= 8 EnMin= -7517.81588748680     IErMin= 8 ErrMin= 7.34D-06
 ErrMax= 7.34D-06  0.00D+00 EMaxC= 1.00D-01 BMatC= 7.48D-08 BMatP= 2.24D-07
 IDIUse=1 WtCom= 1.00D+00 WtEn= 0.00D+00
 Coeff-Com:  0.349D-05-0.132D-01-0.538D-02-0.861D-02 0.127D-02 0.287D+00
 Coeff-Com:  0.354D+00 0.385D+00
 Coeff:      0.349D-05-0.132D-01-0.538D-02-0.861D-02 0.127D-02 0.287D+00
 Coeff:      0.354D+00 0.385D+00
 Gap=     0.116 Goal=   None    Shift=    0.000
 RMSDP=7.73D-07 MaxDP=2.70D-05 DE=-1.86D-07 OVMax= 1.16D-04

 Cycle   9  Pass 1  IDiag  1:
 RMSU=  2.66D-07    CP:  9.99D-01  8.67D-01  4.36D-01  3.91D-01  7.12D-01
                    CP:  1.12D+00  5.54D-01  3.87D-01
 E= -7517.81588757539     Delta-E=       -0.000000088596 Rises=F Damp=F
 DIIS: error= 1.34D-06 at cycle   9 NSaved=   9.
 NSaved= 9 IEnMin= 9 EnMin= -7517.81588757539     IErMin= 9 ErrMin= 1.34D-06
 ErrMax= 1.34D-06  0.00D+00 EMaxC= 1.00D-01 BMatC= 4.05D-09 BMatP= 7.48D-08
 IDIUse=1 WtCom= 1.00D+00 WtEn= 0.00D+00
 Coeff-Com:  0.199D-04-0.961D-02-0.400D-02-0.764D-02-0.971D-02 0.116D+00
 Coeff-Com:  0.180D+00 0.249D+00 0.485D+00
 Coeff:      0.199D-04-0.961D-02-0.400D-02-0.764D-02-0.971D-02 0.116D+00
 Coeff:      0.180D+00 0.249D+00 0.485D+00
 Gap=     0.116 Goal=   None    Shift=    0.000
 RMSDP=1.86D-07 MaxDP=1.27D-05 DE=-8.86D-08 OVMax= 2.79D-05

 Cycle  10  Pass 1  IDiag  1:
 RMSU=  9.41D-08    CP:  9.99D-01  8.67D-01  4.36D-01  3.92D-01  7.17D-01
                    CP:  1.12D+00  5.59D-01  4.94D-01  7.49D-01
 E= -7517.81588757968     Delta-E=       -0.000000004291 Rises=F Damp=F
 DIIS: error= 2.20D-07 at cycle  10 NSaved=  10.
 NSaved=10 IEnMin=10 EnMin= -7517.81588757968     IErMin=10 ErrMin= 2.20D-07
 ErrMax= 2.20D-07  0.00D+00 EMaxC= 1.00D-01 BMatC= 9.00D-11 BMatP= 4.05D-09
 IDIUse=1 WtCom= 1.00D+00 WtEn= 0.00D+00
 Coeff-Com:  0.382D-05-0.102D-02-0.370D-03-0.920D-03-0.266D-02 0.123D-02
 Coeff-Com:  0.114D-01 0.244D-01 0.134D+00 0.834D+00
 Coeff:      0.382D-05-0.102D-02-0.370D-03-0.920D-03-0.266D-02 0.123D-02
 Coeff:      0.114D-01 0.244D-01 0.134D+00 0.834D+00
 Gap=     0.116 Goal=   None    Shift=    0.000
 RMSDP=5.81D-08 MaxDP=2.74D-06 DE=-4.29D-09 OVMax= 1.00D-05

 Cycle  11  Pass 1  IDiag  1:
 RMSU=  3.42D-08    CP:  9.99D-01  8.67D-01  4.36D-01  3.93D-01  7.18D-01
                    CP:  1.13D+00  5.64D-01  4.92D-01  8.57D-01  1.04D+00
 E= -7517.81588757959     Delta-E=        0.000000000095 Rises=F Damp=F
 DIIS: error= 1.64D-07 at cycle  11 NSaved=  11.
 NSaved=11 IEnMin=10 EnMin= -7517.81588757968     IErMin=11 ErrMin= 1.64D-07
 ErrMax= 1.64D-07  0.00D+00 EMaxC= 1.00D-01 BMatC= 3.67D-11 BMatP= 9.00D-11
 IDIUse=1 WtCom= 1.00D+00 WtEn= 0.00D+00
 Coeff-Com: -0.234D-06 0.546D-03 0.267D-03 0.347D-03-0.324D-03-0.129D-01
 Coeff-Com: -0.144D-01-0.152D-01 0.183D-01 0.515D+00 0.509D+00
 Coeff:     -0.234D-06 0.546D-03 0.267D-03 0.347D-03-0.324D-03-0.129D-01
 Coeff:     -0.144D-01-0.152D-01 0.183D-01 0.515D+00 0.509D+00
 Gap=     0.116 Goal=   None    Shift=    0.000
 RMSDP=2.39D-08 MaxDP=1.34D-06 DE= 9.46D-11 OVMax= 3.83D-06

 Cycle  12  Pass 1  IDiag  1:
 RMSU=  1.27D-08    CP:  9.99D-01  8.67D-01  4.36D-01  3.93D-01  7.18D-01
                    CP:  1.13D+00  5.66D-01  4.98D-01  8.64D-01  1.16D+00
                    CP:  6.13D-01
 E= -7517.81588757951     Delta-E=        0.000000000084 Rises=F Damp=F
 DIIS: error= 4.57D-08 at cycle  12 NSaved=  12.
 NSaved=12 IEnMin=10 EnMin= -7517.81588757968     IErMin=12 ErrMin= 4.57D-08
 ErrMax= 4.57D-08  0.00D+00 EMaxC= 1.00D-01 BMatC= 3.20D-12 BMatP= 3.67D-11
 IDIUse=1 WtCom= 1.00D+00 WtEn= 0.00D+00
 Coeff-Com: -0.512D-06 0.413D-03 0.189D-03 0.284D-03 0.121D-03-0.753D-02
 Coeff-Com: -0.926D-02-0.110D-01-0.448D-02 0.205D+00 0.294D+00 0.532D+00
 Coeff:     -0.512D-06 0.413D-03 0.189D-03 0.284D-03 0.121D-03-0.753D-02
 Coeff:     -0.926D-02-0.110D-01-0.448D-02 0.205D+00 0.294D+00 0.532D+00
 Gap=     0.116 Goal=   None    Shift=    0.000
 RMSDP=8.36D-09 MaxDP=4.87D-07 DE= 8.37D-11 OVMax= 1.13D-06

 SCF Done:  E(RPBE1PBE) =  -7517.81588758     A.U. after   12 cycles
            NFock= 12  Conv=0.84D-08     -V/T= 2.1284
 KE= 6.662190698656D+03 PE=-2.478852085240D+04 EE= 7.010008433267D+03
 Leave Link  502 at Tue Mar  6 14:58:04 2018, MaxMem=   536870912 cpu:      2120.8
 (Enter /share/apps//mg09/l701.exe)
 Compute integral first derivatives.
 ... and contract with generalized density number  0.
   1 Symmetry operations used in ECPInt.
 ECPInt:  NShTT=   10440 NPrTT=   41973 LenC2=    9693 LenP2D=   27619.
 LDataN:  DoStor=T MaxTD1= 9 Len=  602
 Leave Link  701 at Tue Mar  6 14:58:20 2018, MaxMem=   536870912 cpu:        65.6
 (Enter /share/apps//mg09/l702.exe)
 L702 exits ... SP integral derivatives will be done elsewhere.
 Leave Link  702 at Tue Mar  6 14:58:20 2018, MaxMem=   536870912 cpu:         0.1
 (Enter /share/apps//mg09/l703.exe)
 Compute integral first derivatives, UseDBF=F ICtDFT=           0.
 Integral derivatives from FoFJK, PRISM(SPDF).
 Calling FoFJK, ICntrl=      2127 FMM=F ISym2X=0 I1Cent= 0 IOpClX= 0 NMat=1 NMatS=1 NMatT=0.
 FoFJK:  IHMeth= 1 ICntrl=    2127 DoSepK=F KAlg= 0 I1Cent=   0 FoldK=F
 IRaf=         0 NMat=   1 IRICut=       1 DoRegI=T DoRafI=F ISym2E= 0.
 FoFCou: FMM=F IPFlag=           0 FMFlag=      100000 FMFlg1=         800
         NFxFlg=           0 DoJE=F BraDBF=F KetDBF=F FulRan=T
         wScrn=  0.000000 ICntrl=    2127 IOpCl=  0 I1Cent=           0 NGrid=           0
         NMat0=    1 NMatS0=      1 NMatT0=    0 NMatD0=    1 NMtDS0=    0 NMtDT0=    0
 Symmetry not used in FoFCou.
 Defaulting to unpruned grid for atomic number  83.
 Defaulting to unpruned grid for atomic number  83.
 Defaulting to unpruned grid for atomic number  83.
 Defaulting to unpruned grid for atomic number  83.
 Leave Link  703 at Tue Mar  6 15:01:11 2018, MaxMem=   536870912 cpu:       681.5
 (Enter /share/apps//mg09/l716.exe)
 Dipole        = 1.02096362D-01-5.21522665D-01-4.34033343D-01
 ***** Axes restored to original set *****
 -------------------------------------------------------------------
 Center     Atomic                   Forces (Hartrees/Bohr)
 Number     Number              X              Y              Z
 -------------------------------------------------------------------
      1       83           0.000285494    0.001491993    0.001262541
      2       32          -0.000041860   -0.007542843   -0.003339104
      3       50           0.000552732    0.002897478    0.004581863
      4       83          -0.003441789    0.001128376    0.000287508
      5       83           0.000201526    0.000035346   -0.000390763
      6       50          -0.005178125    0.002307924   -0.002723858
      7       83           0.003249518    0.001178363    0.000330983
      8       32           0.003894240    0.003515245   -0.005266337
      9       32           0.000478264   -0.005011883    0.005257166
 -------------------------------------------------------------------
 Cartesian Forces:  Max     0.007542843 RMS     0.003190822
 Leave Link  716 at Tue Mar  6 15:01:11 2018, MaxMem=   536870912 cpu:         0.1
 (Enter /share/apps//mg09/l103.exe)

 GradGradGradGradGradGradGradGradGradGradGradGradGradGradGradGradGradGrad
 Berny optimization.
 Search for a local minimum.
 Step number   2 out of a maximum of  100
 All quantities printed in internal units (Hartrees-Bohrs-Radians)
 Update second derivatives using D2CorN and points    1    2
 DE= -5.65D-03 DEPred=-4.16D-03 R= 1.36D+00
 TightC=F SS=  1.41D+00  RLast= 2.22D-01 DXNew= 5.0454D-01 6.6599D-01
 Trust test= 1.36D+00 RLast= 2.22D-01 DXMaxT set to 5.05D-01
 ITU=  1  0
     Eigenvalues ---    0.07674   0.09580   0.11567   0.11951   0.12678
     Eigenvalues ---    0.13253   0.14207   0.14766   0.15509   0.16913
     Eigenvalues ---    0.17834   0.21393   0.22564   0.22965   0.23807
     Eigenvalues ---    0.24427   0.27680   0.28530   0.29929   0.31341
     Eigenvalues ---    0.32042
 RFO step:  Lambda=-4.37130993D-04 EMin= 7.67415160D-02
 Quartic linear search produced a step of  0.61585.
 TrRot= -0.000003 -0.000009  0.000067 -0.000018  0.000009 -0.000018
 Variable       Old X    -DE/DX   Delta X   Delta X   Delta X     New X
                                 (Linear)    (Quad)   (Total)
    X1       -2.39326   0.00029   0.02247  -0.00914   0.01320  -2.38006
    Y1       -3.70220   0.00149   0.03309  -0.01324   0.01993  -3.68227
    Z1        0.32724   0.00126   0.00529   0.00929   0.01467   0.34191
    X2       -0.25546  -0.00004  -0.00059  -0.00028  -0.00071  -0.25617
    Y2        4.17096  -0.00754  -0.04073  -0.01263  -0.05336   4.11760
    Z2        2.60583  -0.00334  -0.02307  -0.00371  -0.02671   2.57912
    X3       -0.79797   0.00055   0.00632   0.00097   0.00723  -0.79074
    Y3       -0.68709   0.00290   0.01731   0.00601   0.02334  -0.66375
    Z3       -4.45490   0.00458   0.04181   0.00224   0.04412  -4.41078
    X4        3.80529  -0.00344  -0.03280   0.00398  -0.02874   3.77655
    Y4        2.50578   0.00113  -0.01608   0.01125  -0.00497   2.50081
    Z4       -0.76138   0.00029   0.01025  -0.00458   0.00570  -0.75568
    X5        3.07393   0.00020  -0.02216   0.01942  -0.00285   3.07107
    Y5       -3.15602   0.00004   0.02580  -0.01600   0.00969  -3.14633
    Z5       -0.89231  -0.00039   0.00529  -0.00903  -0.00370  -0.89601
    X6        2.89336  -0.00518  -0.04121  -0.00813  -0.04931   2.84404
    Y6       -0.17759   0.00231   0.00832   0.00404   0.01226  -0.16533
    Z6        4.15008  -0.00272  -0.03792   0.00034  -0.03754   4.11255
    X7       -4.43711   0.00325   0.03530  -0.00736   0.02799  -4.40911
    Y7        1.64752   0.00118  -0.00815   0.00694  -0.00107   1.64645
    Z7       -0.15948   0.00033   0.00435  -0.00262   0.00183  -0.15765
    X8       -2.44932   0.00389   0.02839   0.00159   0.03001  -2.41931
    Y8       -0.17450   0.00352   0.01878   0.01496   0.03381  -0.14069
    Z8        4.50746  -0.00527  -0.04145  -0.00681  -0.04817   4.45929
    X9       -0.72054   0.00048   0.00427  -0.00122   0.00318  -0.71736
[...]
      X  X   X                    X   XX              X                                                                        X     
      X  X   X                    X   XX              X                                                                              
      X  X   X                    X   XX              X                                                                              
      X      X                    X    X                                                                                             
      X      X                    X    X                                                                                             
      X      X                    X                                                                                                  
      X      X                                                                                                                       
      X      X                                                                                                                       
      X      X                                                                                                                       
             X                                                                                                                       
             X                                                                                                                       
             X                                                                                                                       
             X                                                                                                                       
             X                                                                                                                       
             X                                                                                                                       
 
 ***** Axes restored to original set *****
 -------------------------------------------------------------------
 Center     Atomic                   Forces (Hartrees/Bohr)
 Number     Number              X              Y              Z
 -------------------------------------------------------------------
      1       83          -0.000063763    0.000030920    0.000104122
      2       32           0.000111746    0.000142060    0.000009412
      3       50          -0.000032851    0.000000828   -0.000102099
      4       83          -0.000145588   -0.000057590    0.000013302
      5       83           0.000065944   -0.000032139   -0.000044536
      6       50          -0.000057490    0.000021847   -0.000034394
      7       83           0.000123622   -0.000079366   -0.000037415
      8       32           0.000034923   -0.000019454    0.000022395
      9       32          -0.000036544   -0.000007107    0.000069215
 -------------------------------------------------------------------
 Cartesian Forces:  Max     0.000145588 RMS     0.000068961
 Force constants in Cartesian coordinates: 
                1             2             3             4             5 
      1  0.670547D-01
      2  0.320663D-02  0.808513D-01
      3 -0.160604D-01 -0.140195D-02  0.382694D-01
      4 -0.339671D-02 -0.198908D-02 -0.441092D-02  0.432352D-01
      5  0.157955D-02 -0.775208D-02 -0.527334D-02 -0.474817D-03  0.628603D-01
      6 -0.171190D-02 -0.462976D-03 -0.720859D-03 -0.312800D-02  0.745736D-02
      7  0.235352D-02 -0.506480D-02  0.695617D-02 -0.385078D-02 -0.587342D-03
      8 -0.220631D-02 -0.105568D-01  0.714898D-02 -0.170156D-02 -0.173718D-02
      9  0.426747D-02  0.973866D-02 -0.171202D-01 -0.189594D-03 -0.631012D-03
     10 -0.103748D-02 -0.117323D-02 -0.671252D-03 -0.150415D-01  0.377376D-02
     11 -0.935790D-02  0.356481D-03  0.378638D-02  0.626778D-02 -0.589260D-02
     12 -0.300633D-02  0.551737D-03 -0.308215D-02  0.172378D-01 -0.428820D-02
     13 -0.507666D-01 -0.412324D-02  0.108214D-01  0.104697D-02 -0.195814D-02
     14 -0.552665D-02 -0.609023D-02  0.185075D-02  0.334942D-02 -0.486518D-02
     15  0.117814D-01  0.207625D-02  0.796748D-03  0.394521D-02 -0.523606D-03
     16 -0.211800D-02  0.819704D-03 -0.908067D-03 -0.511922D-02  0.113826D-01
     17 -0.263598D-02 -0.652783D-03 -0.341598D-02  0.124805D-01 -0.147044D-01
     18  0.106215D-03  0.192929D-03 -0.149505D-02 -0.704464D-02  0.205322D-02
     19 -0.944580D-02  0.130183D-01  0.178257D-02 -0.137247D-01 -0.621926D-02
     20  0.132293D-01 -0.351313D-01  0.673641D-02 -0.730310D-02 -0.580318D-02
     21  0.157057D-02  0.412559D-02  0.440016D-02 -0.100662D-01 -0.523629D-02
     22 -0.118693D-02 -0.198330D-02  0.122248D-02 -0.405251D-02 -0.809646D-02
     23 -0.163960D-03 -0.173696D-01 -0.134493D-01 -0.108550D-01 -0.182175D-01
     24  0.258349D-02 -0.148137D-01 -0.206493D-01  0.720047D-02  0.346645D-02
     25 -0.145670D-02 -0.271095D-02  0.126796D-02  0.903160D-03  0.600104D-03
     26  0.187534D-02 -0.365505D-02  0.401804D-02  0.225921D-03 -0.388816D-02
     27  0.469412D-03 -0.654504D-05 -0.398750D-03 -0.354410D-02  0.297543D-02
                6             7             8             9            10 
      6  0.561106D-01
      7  0.221546D-03  0.280538D-01
      8 -0.725113D-02 -0.837301D-02  0.438405D-01
      9 -0.455306D-02  0.334873D-02  0.248471D-02  0.660057D-01
     10  0.148757D-01 -0.220075D-02 -0.161017D-02 -0.882774D-03  0.772905D-01
     11 -0.821908D-02 -0.317469D-02 -0.137422D-02 -0.140772D-02 -0.345779D-03
     12 -0.100732D-01 -0.250128D-02 -0.856486D-03 -0.279182D-02 -0.105488D-01
     13  0.623181D-03 -0.138190D-01  0.847663D-02 -0.118321D-01 -0.565045D-02
     14 -0.326560D-03  0.109106D-01 -0.580099D-02  0.632342D-02 -0.666271D-02
     15 -0.380241D-02 -0.131121D-01  0.415879D-02 -0.135110D-01  0.153026D-02
     16 -0.621092D-02 -0.983139D-03 -0.313494D-02  0.157160D-02 -0.535395D-02
     17  0.618604D-02 -0.480734D-02  0.392496D-03 -0.132176D-02 -0.222617D-02
     18 -0.328567D-02 -0.546788D-02  0.397926D-02 -0.506273D-02  0.552624D-02
     19 -0.846053D-02 -0.843797D-02  0.744814D-02  0.636834D-02 -0.800364D-02
     20 -0.699423D-02  0.840842D-02  0.425744D-03 -0.742161D-02 -0.246071D-02
     21 -0.647118D-02  0.696761D-02 -0.514527D-02 -0.119118D-01  0.326966D-02
     22  0.661530D-02 -0.935485D-03  0.234350D-02 -0.262242D-02 -0.356390D-02
     23  0.825528D-02  0.325689D-02  0.125865D-02 -0.154936D-02 -0.999665D-03
     24 -0.592365D-02  0.362919D-02  0.349760D-02 -0.489290D-02 -0.300299D-03
     25 -0.282439D-02 -0.180161D-03 -0.124228D-02 -0.292328D-04 -0.364389D-01
     26  0.135530D-02 -0.568764D-03 -0.264482D-01 -0.621533D-02  0.117047D-01
     27 -0.212806D-01 -0.420032D-04 -0.801646D-02 -0.616223D-02 -0.127988D-01
               11            12            13            14            15 
     11  0.701848D-01
     12 -0.156084D-01  0.496928D-01
     13 -0.590031D-02  0.152349D-02  0.753800D-01
     14 -0.434631D-01 -0.368644D-02 -0.707103D-02  0.714279D-01
     15 -0.206540D-02  0.350487D-02 -0.277551D-02  0.836727D-02  0.337466D-01
     16 -0.343931D-02  0.702503D-02 -0.643509D-03  0.283561D-02 -0.224253D-02
     17 -0.533704D-02  0.185477D-01  0.292345D-02 -0.878178D-02 -0.109005D-01
     18  0.168192D-01 -0.279666D-01 -0.594734D-03 -0.118052D-01 -0.191221D-01
     19  0.841608D-04 -0.149409D-02 -0.184111D-02 -0.321048D-03 -0.295198D-03
     20 -0.312808D-02 -0.348566D-02  0.548373D-02  0.112184D-02  0.135503D-02
     21 -0.336231D-02  0.491787D-03  0.162405D-02  0.908954D-03 -0.219634D-02
     22  0.839321D-03  0.462210D-02 -0.218081D-02 -0.127014D-02  0.336886D-02
     23 -0.423592D-02  0.518261D-03  0.227495D-02 -0.403353D-03 -0.534188D-02
     24  0.573858D-03 -0.405112D-02 -0.181500D-05 -0.205203D-03 -0.113873D-02
     25  0.150267D-01 -0.128579D-01 -0.152542D-02  0.375593D-02 -0.220044D-02
     26 -0.711033D-02  0.830751D-02 -0.106027D-03 -0.314512D-02  0.287402D-02
     27  0.948342D-02 -0.572457D-02  0.612047D-03 -0.142701D-02  0.172230D-02
               16            17            18            19            20 
     16  0.555363D-01
     17 -0.982862D-02  0.341329D-01
     18  0.457748D-02 -0.125700D-01  0.662056D-01
     19 -0.419456D-02  0.699422D-03 -0.110959D-02  0.843278D-01
     20  0.384522D-03 -0.333978D-02  0.431817D-03 -0.508907D-02  0.613629D-01
     21 -0.591821D-02  0.590024D-03 -0.289884D-02  0.317813D-02 -0.154767D-01
     22 -0.368118D-01 -0.143175D-03  0.559272D-02 -0.117141D-01  0.483730D-02
     23  0.237270D-03  0.113869D-02  0.245103D-02  0.431975D-02 -0.152285D-02
     24 -0.247832D-03  0.225068D-02 -0.186771D-02 -0.125731D-01  0.107423D-01
     25 -0.312089D-03  0.353794D-02 -0.158581D-02 -0.269659D-01 -0.174904D-01
     26  0.743164D-03 -0.284831D-02 -0.155231D-02 -0.139404D-01 -0.139853D-01
     27  0.235345D-02  0.633802D-03 -0.450689D-02  0.126034D-01  0.141126D-01
               21            22            23            24            25 
     21  0.555215D-01
     22 -0.140330D-01  0.593649D-01
     23  0.115239D-01  0.451061D-02  0.407448D-01
     24 -0.301162D-01 -0.219847D-02 -0.528851D-02  0.734821D-01
     25  0.134073D-01  0.108072D-02 -0.258081D-02  0.190834D-02  0.648953D-01
     26  0.120721D-01 -0.103766D-02 -0.139292D-02 -0.223490D-03  0.110371D-02
     27 -0.681909D-02 -0.256761D-02  0.288058D-02 -0.484250D-02  0.291416D-02
               26            27 
     26  0.624734D-01
     27 -0.206358D-01  0.480123D-01
 Leave Link  716 at Tue Mar  6 17:33:30 2018, MaxMem=   536870912 cpu:         0.1
 (Enter /share/apps//mg09/l103.exe)

 GradGradGradGradGradGradGradGradGradGradGradGradGradGradGradGradGradGrad
 Berny optimization.
 Search for a local minimum.
 Step number   1 out of a maximum of    2
 All quantities printed in internal units (Hartrees-Bohrs-Radians)
 Second derivative matrix not updated -- analytic derivatives used.
 ITU=  0
     Eigenvalues ---    0.00043   0.01710   0.02974   0.03748   0.04385
     Eigenvalues ---    0.04597   0.05054   0.05536   0.05678   0.05808
     Eigenvalues ---    0.06266   0.06823   0.07922   0.09224   0.10339
     Eigenvalues ---    0.10580   0.12436   0.12584   0.13250   0.13773
     Eigenvalues ---    0.14040
 Angle between quadratic step and forces=  80.11 degrees.
 Linear search not attempted -- first point.
 TrRot=  0.000061  0.000279  0.000192 -1.083542 -0.000170  1.083455
 Variable       Old X    -DE/DX   Delta X   Delta X   Delta X     New X
                                 (Linear)    (Quad)   (Total)
    X1       -2.35665  -0.00006   0.00000   0.02174   0.02145  -2.33520
    Y1       -3.69086   0.00003   0.00000   0.00242   0.00297  -3.68789
    Z1        0.38215   0.00010   0.00000   0.02341   0.02397   0.40612
    X2       -0.24022   0.00011   0.00000   0.00164   0.00185  -0.23837
    Y2        4.08131   0.00014   0.00000   0.00502   0.00571   4.08702
    Z2        2.56726   0.00001   0.00000  -0.00049  -0.00093   2.56633
    X3       -0.78779  -0.00003   0.00000  -0.02469  -0.02433  -0.81212
    Y3       -0.63563   0.00000   0.00000  -0.00977  -0.01008  -0.64570
    Z3       -4.38266  -0.00010   0.00000  -0.00385  -0.00362  -4.38628
    X4        3.79586  -0.00015   0.00000   0.00711   0.00744   3.80331
    Y4        2.49924  -0.00006   0.00000   0.00864   0.00847   2.50772
    Z4       -0.78049   0.00001   0.00000   0.02216   0.02228  -0.75821
    X5        3.09346   0.00007   0.00000   0.01003   0.00989   3.10336
    Y5       -3.16691  -0.00003   0.00000   0.01226   0.01213  -3.15478
    Z5       -0.91732  -0.00004   0.00000  -0.03135  -0.03043  -0.94775
    X6        2.81990  -0.00006   0.00000  -0.01738  -0.01766   2.80224
    Y6       -0.17149   0.00002   0.00000  -0.02497  -0.02432  -0.19581
    Z6        4.10313  -0.00003   0.00000  -0.00519  -0.00474   4.09839
    X7       -4.44890   0.00012   0.00000   0.00332   0.00354  -4.44536
    Y7        1.62871  -0.00008   0.00000  -0.00414  -0.00351   1.62520
    Z7       -0.19411  -0.00004   0.00000  -0.00994  -0.01034  -0.20446
    X8       -2.43399   0.00003   0.00000  -0.01116  -0.01146  -2.44544
    Y8       -0.09138  -0.00002   0.00000   0.01506   0.01622  -0.07516
    Z8        4.44574   0.00002   0.00000   0.00615   0.00616   4.45190
    X9       -0.72277  -0.00004   0.00000   0.00862   0.00928  -0.71349
    Y9        4.45747  -0.00001   0.00000  -0.00754  -0.00760   4.44987
    Z9       -2.61538   0.00007   0.00000  -0.00180  -0.00234  -2.61771
         Item               Value     Threshold  Converged?
 Maximum Force            0.000146     0.000450     YES
 RMS     Force            0.000069     0.000300     YES
 Maximum Displacement     0.030434     0.001800     NO 
 RMS     Displacement     0.013906     0.001200     NO 
 Predicted change in Energy=-2.219505D-06
 GradGradGradGradGradGradGradGradGradGradGradGradGradGradGradGradGradGrad

 Leave Link  103 at Tue Mar  6 17:33:31 2018, MaxMem=   536870912 cpu:         0.1
 (Enter /share/apps//mg09/l9999.exe)
 1\1\GINC-COMPUTE-0-4\Freq\RPBE1PBE\def2TZVP\Bi4Ge3Sn2\RODRIGO\06-Mar-2
 018\0\\#P Geom=AllCheck Guess=TCheck SCRF=Check GenChk RPBE1PBE/def2TZ
 VP Freq\\01Final_coords.xyz_37\\0,1\Bi,-1.2470862667,-1.953118387,0.20
 2225768\Ge,-0.1271183123,2.1597359865,1.358537844\Sn,-0.4168803143,-0.
 3363582893,-2.3192017597\Bi,2.008684585,1.3225411523,-0.4130185487\Bi,
 1.6369897938,-1.6758548051,-0.4854244704\Sn,1.4922259799,-0.0907478126
 ,2.1712852888\Bi,-2.354255701,0.8618738734,-0.1027209017\Ge,-1.2880108
 846,-0.0483580041,2.3525846585\Ge,-0.382470881,2.3587912857,-1.3839968
 79\\Version=ES64L-G09RevD.01\State=1-A\HF=-7517.8175057\RMSD=9.471e-09
 \RMSF=6.896e-05\ZeroPoint=0.0057563\Thermal=0.0232877\Dipole=0.1082883
 ,-0.5548261,-0.451731\DipoleDeriv=0.0263019,0.1136541,0.0930863,0.0339
 37,-0.0080345,-0.0150077,0.1061714,-0.0399698,-0.0067682,0.0218175,-0.
 0274793,-0.0116259,-0.0106123,0.0280698,0.0917765,0.0060493,0.0167711,
 -0.0989231,0.0777409,0.0123975,-0.0321754,0.0229952,0.0502042,0.065838
 7,0.0238477,0.0276826,0.2326746,0.058888,0.126561,0.0282061,0.1018691,
 -0.0182798,0.055761,0.0565522,0.0503591,0.0928211,-0.081599,-0.1345433
 ,-0.0791036,-0.0495414,-0.0657067,0.025837,-0.1214594,-0.0039771,-0.22
 23532,0.0973979,0.0097186,0.2212163,-0.0087545,0.0599086,-0.0612074,0.
 0972041,0.0163501,0.1444813,0.1181308,-0.0652507,-0.0037972,-0.043428,
 0.0394975,0.0200003,-0.0674679,0.0383317,0.0015376,-0.1402368,0.007737
 5,-0.2485526,0.0253149,-0.1503621,0.0285379,-0.1221204,0.0332022,0.000
 7961,-0.1784413,-0.0427954,0.0327461,-0.07178,0.0647029,-0.2115364,0.0
 212229,-0.1387499,-0.1442663\Polar=377.8213223,-3.7149391,369.3240547,
 8.8744396,-0.9495874,388.3541887\PG=C01 [X(Bi4Ge3Sn2)]\NImag=0\\0.0670
 5473,0.00320663,0.08085134,-0.01606036,-0.00140195,0.03826939,-0.00339
 671,-0.00198908,-0.00441092,0.04323525,0.00157955,-0.00775208,-0.00527
 334,-0.00047482,0.06286026,-0.00171190,-0.00046298,-0.00072086,-0.0031
 2800,0.00745736,0.05611057,0.00235352,-0.00506480,0.00695617,-0.003850
 78,-0.00058734,0.00022155,0.02805380,-0.00220631,-0.01055676,0.0071489
 8,-0.00170156,-0.00173718,-0.00725113,-0.00837301,0.04384049,0.0042674
 7,0.00973866,-0.01712018,-0.00018959,-0.00063101,-0.00455306,0.0033487
 3,0.00248471,0.06600569,-0.00103748,-0.00117323,-0.00067125,-0.0150414
 6,0.00377376,0.01487571,-0.00220075,-0.00161017,-0.00088277,0.07729054
 ,-0.00935790,0.00035648,0.00378638,0.00626778,-0.00589260,-0.00821908,
 -0.00317469,-0.00137422,-0.00140772,-0.00034578,0.07018478,-0.00300633
 ,0.00055174,-0.00308215,0.01723777,-0.00428820,-0.01007315,-0.00250128
 ,-0.00085649,-0.00279182,-0.01054876,-0.01560836,0.04969277,-0.0507666
 3,-0.00412324,0.01082141,0.00104697,-0.00195814,0.00062318,-0.01381904
 ,0.00847663,-0.01183212,-0.00565045,-0.00590031,0.00152349,0.07538000,
 -0.00552665,-0.00609023,0.00185075,0.00334942,-0.00486518,-0.00032656,
 0.01091063,-0.00580099,0.00632342,-0.00666271,-0.04346306,-0.00368644,
 -0.00707103,0.07142788,0.01178143,0.00207625,0.00079675,0.00394521,-0.
 00052361,-0.00380241,-0.01311209,0.00415879,-0.01351098,0.00153026,-0.
 00206540,0.00350487,-0.00277551,0.00836727,0.03374661,-0.00211800,0.00
 081970,-0.00090807,-0.00511922,0.01138261,-0.00621092,-0.00098314,-0.0
 0313494,0.00157160,-0.00535395,-0.00343931,0.00702503,-0.00064351,0.00
 283561,-0.00224253,0.05553629,-0.00263598,-0.00065278,-0.00341598,0.01
 248047,-0.01470441,0.00618604,-0.00480734,0.00039250,-0.00132176,-0.00
 222617,-0.00533704,0.01854765,0.00292345,-0.00878178,-0.01090048,-0.00
 982862,0.03413292,0.00010622,0.00019293,-0.00149505,-0.00704464,0.0020
 5322,-0.00328567,-0.00546788,0.00397926,-0.00506273,0.00552624,0.01681
 921,-0.02796662,-0.00059473,-0.01180518,-0.01912206,0.00457748,-0.0125
 6997,0.06620557,-0.00944580,0.01301829,0.00178257,-0.01372470,-0.00621
 926,-0.00846053,-0.00843797,0.00744814,0.00636834,-0.00800364,0.000084
 16,-0.00149409,-0.00184111,-0.00032105,-0.00029520,-0.00419456,0.00069
 942,-0.00110959,0.08432783,0.01322928,-0.03513130,0.00673641,-0.007303
 10,-0.00580318,-0.00699423,0.00840842,0.00042574,-0.00742161,-0.002460
 71,-0.00312808,-0.00348566,0.00548373,0.00112184,0.00135503,0.00038452
 ,-0.00333978,0.00043182,-0.00508907,0.06136290,0.00157057,0.00412559,0
 .00440016,-0.01006620,-0.00523629,-0.00647118,0.00696761,-0.00514527,-
 0.01191180,0.00326966,-0.00336231,0.00049179,0.00162405,0.00090895,-0.
 00219634,-0.00591821,0.00059002,-0.00289884,0.00317813,-0.01547668,0.0
 5552152,-0.00118693,-0.00198330,0.00122248,-0.00405251,-0.00809646,0.0
 0661530,-0.00093549,0.00234350,-0.00262242,-0.00356390,0.00083932,0.00
 462210,-0.00218081,-0.00127014,0.00336886,-0.03681183,-0.00014317,0.00
 559272,-0.01171414,0.00483730,-0.01403297,0.05936488,-0.00016396,-0.01
 736961,-0.01344928,-0.01085504,-0.01821747,0.00825528,0.00325689,0.001
 25865,-0.00154936,-0.00099967,-0.00423592,0.00051826,0.00227495,-0.000
 40335,-0.00534188,0.00023727,0.00113869,0.00245103,0.00431975,-0.00152
 285,0.01152389,0.00451061,0.04074477,0.00258349,-0.01481369,-0.0206493
 0,0.00720047,0.00346645,-0.00592365,0.00362919,0.00349760,-0.00489290,
 -0.00030030,0.00057386,-0.00405112,-0.00000181,-0.00020520,-0.00113873
 ,-0.00024783,0.00225068,-0.00186771,-0.01257307,0.01074230,-0.03011622
 ,-0.00219847,-0.00528851,0.07348212,-0.00145670,-0.00271095,0.00126796
 ,0.00090316,0.00060010,-0.00282439,-0.00018016,-0.00124228,-0.00002923
 ,-0.03643891,0.01502672,-0.01285793,-0.00152542,0.00375593,-0.00220044
 ,-0.00031209,0.00353794,-0.00158581,-0.02696591,-0.01749037,0.01340735
 ,0.00108072,-0.00258081,0.00190834,0.06489531,0.00187534,-0.00365505,0
 .00401804,0.00022592,-0.00388816,0.00135530,-0.00056876,-0.02644823,-0
 .00621533,0.01170468,-0.00711033,0.00830751,-0.00010603,-0.00314512,0.
 00287402,0.00074316,-0.00284831,-0.00155231,-0.01394038,-0.01398531,0.
 01207210,-0.00103766,-0.00139292,-0.00022349,0.00110371,0.06247342,0.0
 0046941,-0.00000655,-0.00039875,-0.00354410,0.00297543,-0.02128058,-0.
 00004200,-0.00801646,-0.00616223,-0.01279879,0.00948342,-0.00572457,0.
 00061205,-0.00142701,0.00172230,0.00235345,0.00063380,-0.00450689,0.01
 260343,0.01411262,-0.00681909,-0.00256761,0.00288058,-0.00484250,0.002
 91416,-0.02063583,0.04801232\\0.00006376,-0.00003092,-0.00010412,-0.00
 011175,-0.00014206,-0.00000941,0.00003285,-0.00000083,0.00010210,0.000
 14559,0.00005759,-0.00001330,-0.00006594,0.00003214,0.00004454,0.00005
 749,-0.00002185,0.00003439,-0.00012362,0.00007937,0.00003742,-0.000034
 92,0.00001945,-0.00002240,0.00003654,0.00000711,-0.00006921\\\@


 ... FOR AFTERWARDS A MAN FINDS PLEASURE IN HIS PAINS,
 WHEN HE HAS SUFFERED LONG AND WANDERED FAR.

                                    -- HOMER
 Job cpu time:       0 days  3 hours 52 minutes 12.2 seconds.
 File lengths (MBytes):  RWF=    299 Int=      0 D2E=      0 Chk=     16 Scr=      1
 Normal termination of Gaussian 09 at Tue Mar  6 17:33:32 2018.
