 Entering Gaussian System, Link 0=/share/apps/mg09/g09
 Initial command:
 /share/apps//mg09/l1.exe "/state/partition1/gauss_tmp/Gau-12493.inp" -scrdir="/state/partition1/gauss_tmp/"
 Entering Link 1 = /share/apps//mg09/l1.exe PID=     12501.
  
 Copyright (c) 1988,1990,1992,1993,1995,1998,2003,2009,2013,
            Gaussian, Inc.  All Rights Reserved.
  
 This is part of the Gaussian(R) 09 program.  It is based on
 the Gaussian(R) 03 system (copyright 2003, Gaussian, Inc.),
 the Gaussian(R) 98 system (copyright 1998, Gaussian, Inc.),
 the Gaussian(R) 94 system (copyright 1995, Gaussian, Inc.),
 the Gaussian 92(TM) system (copyright 1992, Gaussian, Inc.),
 the Gaussian 90(TM) system (copyright 1990, Gaussian, Inc.),
 the Gaussian 88(TM) system (copyright 1988, Gaussian, Inc.),
 the Gaussian 86(TM) system (copyright 1986, Carnegie Mellon
 University), and the Gaussian 82(TM) system (copyright 1983,
 Carnegie Mellon University). Gaussian is a federally registered
 trademark of Gaussian, Inc.
  
 This software contains proprietary and confidential information,
 including trade secrets, belonging to Gaussian, Inc.
  
 This software is provided under written license and may be
 used, copied, transmitted, or stored only in accord with that
 written license.
  
 The following legend is applicable only to US Government
 contracts under FAR:
  
                    RESTRICTED RIGHTS LEGEND
  
 Use, reproduction and disclosure by the US Government is
 subject to restrictions as set forth in subparagraphs (a)
 and (c) of the Commercial Computer Software - Restricted
 Rights clause in FAR 52.227-19.
  
 Gaussian, Inc.
 340 Quinnipiac St., Bldg. 40, Wallingford CT 06492
  
  
 ---------------------------------------------------------------
 Warning -- This program may not be used in any manner that
 competes with the business of Gaussian, Inc. or will provide
 assistance to any competitor of Gaussian, Inc.  The licensee
 of this program is prohibited from giving any competitor of
 Gaussian, Inc. access to this program.  By using this program,
 the user acknowledges that Gaussian, Inc. is engaged in the
 business of creating and licensing software in the field of
 computational chemistry and represents and warrants to the
 licensee that it is not a competitor of Gaussian, Inc. and that
 it will not use this program in any manner prohibited above.
 ---------------------------------------------------------------
  

 Cite this work as:
 Gaussian 09, Revision D.01,
 M. J. Frisch, G. W. Trucks, H. B. Schlegel, G. E. Scuseria, 
 M. A. Robb, J. R. Cheeseman, G. Scalmani, V. Barone, B. Mennucci, 
 G. A. Petersson, H. Nakatsuji, M. Caricato, X. Li, H. P. Hratchian, 
 A. F. Izmaylov, J. Bloino, G. Zheng, J. L. Sonnenberg, M. Hada, 
 M. Ehara, K. Toyota, R. Fukuda, J. Hasegawa, M. Ishida, T. Nakajima, 
 Y. Honda, O. Kitao, H. Nakai, T. Vreven, J. A. Montgomery, Jr., 
 J. E. Peralta, F. Ogliaro, M. Bearpark, J. J. Heyd, E. Brothers, 
 K. N. Kudin, V. N. Staroverov, T. Keith, R. Kobayashi, J. Normand, 
 K. Raghavachari, A. Rendell, J. C. Burant, S. S. Iyengar, J. Tomasi, 
 M. Cossi, N. Rega, J. M. Millam, M. Klene, J. E. Knox, J. B. Cross, 
 V. Bakken, C. Adamo, J. Jaramillo, R. Gomperts, R. E. Stratmann, 
 O. Yazyev, A. J. Austin, R. Cammi, C. Pomelli, J. W. Ochterski, 
 R. L. Martin, K. Morokuma, V. G. Zakrzewski, G. A. Voth, 
 P. Salvador, J. J. Dannenberg, S. Dapprich, A. D. Daniels, 
 O. Farkas, J. B. Foresman, J. V. Ortiz, J. Cioslowski, 
 and D. J. Fox, Gaussian, Inc., Wallingford CT, 2013.
 
 ******************************************
 Gaussian 09:  ES64L-G09RevD.01 24-Apr-2013
                 6-Mar-2018 
 ******************************************
 %NProcShared=4
 Will use up to    4 processors via shared memory.
 %LindaWorkers=compute-0-4
 %chk=Isomer_17.chk
 %NProc=4
 Will use up to    4 processors via shared memory.
 %mem=4GB
 SetLPE:  input flags=" -vv -opt "Tsnet.Node.lindarsharg: ssh" "
 SetLPE:    new flags=" -vv -opt "Tsnet.Node.lindarsharg: ssh"  -nodelist 'compute-0-4.local'"
 Will use up to    1 processors via Linda.
 ----------------------------------------------------------------------
 #p PBE1PBE/Def2TZVP scf=(maxcycle=768) opt=(cartesian,maxcycle=512) fr
 eq
 ----------------------------------------------------------------------
 1/6=512,10=7,14=-1,18=10,26=3,38=1/1,3;
 2/12=2,17=6,18=5,29=2,40=1/2;
 3/5=44,7=101,11=2,16=1,25=1,30=1,71=1,74=-13/1,2,3;
 4//1;
 5/5=2,7=768,38=5/2;
 6/7=2,8=2,9=2,10=2,28=1/1;
 7/7=1,29=1/1,2,3,16;
 1/6=512,10=7,14=-1,18=10,26=3/3(2);
 2/29=1/2;
 99/12=1/99;
 2/29=1/2;
 3/5=44,7=101,11=2,16=1,25=1,30=1,71=1,74=-13/1,2,3;
 4/5=5,16=3,69=1/1;
 5/5=2,7=768,38=5/2;
 7/7=1/1,2,3,16;
 1/6=512,14=-1,18=10,26=3/3(-5);
 2/29=1/2;
 6/7=2,8=2,9=2,10=2,19=2,28=1/1;
 99/9=1,12=1/99;
 Leave Link    1 at Tue Mar  6 11:56:29 2018, MaxMem=   536870912 cpu:         0.6
 (Enter /share/apps//mg09/l101.exe)
 ---------------------
 01Final_coords.xyz_17
 ---------------------
 Symbolic Z-matrix:
 Charge =  0 Multiplicity = 1
 83                    0.30573  -1.78832  -1.5328 
 83                   -1.90195   0.30736   1.53365 
 50                    2.63754  -0.49965  -0.00182 
 32                   -0.75746   2.50055  -0.00263 
 83                    0.30891  -1.7844    1.53648 
 32                    0.82905   1.0443    2.18329 
 32                    0.82522   1.03849  -2.18648 
 83                   -1.90489   0.30399  -1.53118 
 50                    2.08757   2.4822   -0.00467 
 
 NAtoms=      9 NQM=        9 NQMF=       0 NMMI=      0 NMMIF=      0
                NMic=       0 NMicF=      0.
                    Isotopes and Nuclear Properties:
 (Nuclear quadrupole moments (NQMom) in fm**2, nuclear magnetic moments (NMagM)
  in nuclear magnetons)

  Atom         1           2           3           4           5           6           7           8           9
 IAtWgt=         209         209         118          74         209          74          74         209         118
 AtmWgt= 208.9804000 208.9804000 117.9018000  73.9211788 208.9804000  73.9211788  73.9211788 208.9804000 117.9018000
 NucSpn=           9           9           0           0           9           0           0           9           0
 AtZEff=   0.0000000   0.0000000   0.0000000   0.0000000   0.0000000   0.0000000   0.0000000   0.0000000   0.0000000
 NQMom=  -51.6000000 -51.6000000   0.0000000   0.0000000 -51.6000000   0.0000000   0.0000000 -51.6000000   0.0000000
 NMagM=    4.1106000   4.1106000   0.0000000   0.0000000   4.1106000   0.0000000   0.0000000   4.1106000   0.0000000
 AtZNuc=  83.0000000  83.0000000  50.0000000  32.0000000  83.0000000  32.0000000  32.0000000  83.0000000  50.0000000
 Leave Link  101 at Tue Mar  6 11:56:38 2018, MaxMem=   536870912 cpu:         0.3
 (Enter /share/apps//mg09/l103.exe)

 GradGradGradGradGradGradGradGradGradGradGradGradGradGradGradGradGradGrad
 Berny optimization.
 Initialization pass.
 No Z-matrix variables, so optimization will use Cartesian coordinates.
 Trust Radius=3.00D-01 FncErr=1.00D-07 GrdErr=1.00D-06
 Number of steps in this run=    100 maximum allowed number of steps=    100.
 GradGradGradGradGradGradGradGradGradGradGradGradGradGradGradGradGradGrad

 Leave Link  103 at Tue Mar  6 11:56:56 2018, MaxMem=   536870912 cpu:         0.1
 (Enter /share/apps//mg09/l202.exe)
 ---------------------------------------------------------------------------------------------------
                            Z-MATRIX (ANGSTROMS AND DEGREES)
   CD    Cent   Atom    N1       Length/X        N2       Alpha/Y        N3        Beta/Z          J
 ---------------------------------------------------------------------------------------------------
      1      1  Bi       0   0.305728         -1.788323         -1.532799
      2      2  Bi       0  -1.901950          0.307355          1.533653
      3      3  Sn       0   2.637541         -0.499654         -0.001824
      4      4  Ge       0  -0.757464          2.500546         -0.002627
      5      5  Bi       0   0.308905         -1.784398          1.536479
      6      6  Ge       0   0.829052          1.044300          2.183288
      7      7  Ge       0   0.825224          1.038495         -2.186478
      8      8  Bi       0  -1.904891          0.303993         -1.531176
      9      9  Sn       0   2.087565          2.482195         -0.004672
 ---------------------------------------------------------------------------------------------------
                         Z-Matrix orientation:                         
 ---------------------------------------------------------------------
 Center     Atomic      Atomic             Coordinates (Angstroms)
 Number     Number       Type             X           Y           Z
 ---------------------------------------------------------------------
      1         83           0        0.305728   -1.788323   -1.532799
      2         83           0       -1.901950    0.307355    1.533653
      3         50           0        2.637541   -0.499654   -0.001824
      4         32           0       -0.757464    2.500546   -0.002627
      5         83           0        0.308905   -1.784398    1.536479
      6         32           0        0.829052    1.044300    2.183288
      7         32           0        0.825224    1.038495   -2.186478
      8         83           0       -1.904891    0.303993   -1.531176
      9         50           0        2.087565    2.482195   -0.004672
 ---------------------------------------------------------------------
                    Distance matrix (angstroms):
                    1          2          3          4          5
     1  Bi   0.000000
     2  Bi   4.320745   0.000000
     3  Sn   3.072768   4.859623   0.000000
     4  Ge   4.676131   2.912060   4.530702   0.000000
     5  Bi   3.069282   3.043570   3.072375   4.676188   0.000000
     6  Ge   4.701800   2.902324   3.229418   3.068535   2.947956
     7  Ge   2.947554   4.670270   3.228484   3.067849   4.700608
     8  Bi   3.043785   3.064832   4.859882   2.911683   4.321201
     9  Sn   4.873134   4.797145   3.032145   2.845089   4.872637
                    6          7          8          9
     6  Ge   0.000000
     7  Ge   4.369772   0.000000
     8  Bi   4.671161   2.902144   0.000000
     9  Sn   2.904921   2.904833   4.797341   0.000000
 Stoichiometry    Bi4Ge3Sn2
 Framework group  C1[X(Bi4Ge3Sn2)]
 Deg. of freedom    21
 Full point group                 C1      NOp   1
 Largest Abelian subgroup         C1      NOp   1
 Largest concise Abelian subgroup C1      NOp   1
                         Standard orientation:                         
 ---------------------------------------------------------------------
 Center     Atomic      Atomic             Coordinates (Angstroms)
 Number     Number       Type             X           Y           Z
 ---------------------------------------------------------------------
      1         83           0        0.305728   -1.788323   -1.532799
      2         83           0       -1.901950    0.307355    1.533653
      3         50           0        2.637541   -0.499654   -0.001824
      4         32           0       -0.757464    2.500546   -0.002627
      5         83           0        0.308905   -1.784398    1.536479
      6         32           0        0.829052    1.044300    2.183288
      7         32           0        0.825224    1.038495   -2.186478
      8         83           0       -1.904891    0.303993   -1.531176
      9         50           0        2.087565    2.482195   -0.004672
 ---------------------------------------------------------------------
 Rotational constants (GHZ):      0.0932828      0.0885869      0.0874450
 Leave Link  202 at Tue Mar  6 11:56:58 2018, MaxMem=   536870912 cpu:         0.0
 (Enter /share/apps//mg09/l301.exe)
 Standard basis: def2TZVP (5D, 7F)
 Ernie: Thresh=  0.10000D-02 Tol=  0.10000D-05 Strict=F.
 There are   519 symmetry adapted cartesian basis functions of A   symmetry.
 There are   444 symmetry adapted basis functions of A   symmetry.
   444 basis functions,   963 primitive gaussians,   519 cartesian basis functions
   116 alpha electrons      116 beta electrons
       nuclear repulsion energy      3563.3867555791 Hartrees.
 IExCor= 1009 DFT=T Ex+Corr=PBE1PBE ExCW=0 ScaHFX=  0.250000
 ScaDFX=  0.750000  0.750000  1.000000  1.000000 ScalE2=  1.000000  1.000000
 IRadAn=      0 IRanWt=     -1 IRanGd=            0 ICorTp=0 IEmpDi=  4
 NAtoms=    9 NActive=    9 NUniq=    9 SFac= 1.00D+00 NAtFMM=   60 NAOKFM=F Big=F
 Integral buffers will be    131072 words long.
 Raffenetti 2 integral format.
 Two-electron integral symmetry is turned on.
 Leave Link  301 at Tue Mar  6 11:57:14 2018, MaxMem=   536870912 cpu:         0.3
 (Enter /share/apps//mg09/l302.exe)
 NPDir=0 NMtPBC=     1 NCelOv=     1 NCel=       1 NClECP=     1 NCelD=      1
         NCelK=      1 NCelE2=     1 NClLst=     1 CellRange=     0.0.
 One-electron integrals computed using PRISM.
   1 Symmetry operations used in ECPInt.
 ECPInt:  NShTT=   10440 NPrTT=   41973 LenC2=    9681 LenP2D=   27458.
 LDataN:  DoStor=T MaxTD1= 8 Len=  415
 NBasis=   444 RedAO= T EigKep=  1.02D-03  NBF=   444
 NBsUse=   444 1.00D-06 EigRej= -1.00D+00 NBFU=   444
 Precomputing XC quadrature grid using
 IXCGrd= 4 IRadAn=           0 IRanWt=          -1 IRanGd=           0 AccXCQ= 0.00D+00.
 Defaulting to unpruned grid for atomic number  83.
 Defaulting to unpruned grid for atomic number  83.
 Defaulting to unpruned grid for atomic number  83.
 Generated NRdTot=       0 NPtTot=           0 NUsed=           0 NTot=          32
 NSgBfM=   498   498   498   498   498 MxSgAt=     9 MxSgA2=     9.
 Leave Link  302 at Tue Mar  6 11:57:30 2018, MaxMem=   536870912 cpu:        25.7
 (Enter /share/apps//mg09/l303.exe)
 DipDrv:  MaxL=1.
 Leave Link  303 at Tue Mar  6 11:57:39 2018, MaxMem=   536870912 cpu:         0.3
 (Enter /share/apps//mg09/l401.exe)
 ExpMin= 4.62D-02 ExpMax= 4.66D+05 ExpMxC= 4.50D+03 IAcc=2 IRadAn=         4 AccDes= 0.00D+00
 Harris functional with IExCor= 1009 and IRadAn=       4 diagonalized for initial guess.
 HarFok:  IExCor= 1009 AccDes= 0.00D+00 IRadAn=         4 IDoV= 1 UseB2=F ITyADJ=14
 ICtDFT=  3500011 ScaDFX=  1.000000  1.000000  1.000000  1.000000
 Defaulting to unpruned grid for atomic number  83.
 Defaulting to unpruned grid for atomic number  83.
 Defaulting to unpruned grid for atomic number  83.
 Defaulting to unpruned grid for atomic number  83.
 FoFCou: FMM=F IPFlag=           0 FMFlag=      100000 FMFlg1=           0
         NFxFlg=           0 DoJE=T BraDBF=F KetDBF=T FulRan=T
         wScrn=  0.000000 ICntrl=     500 IOpCl=  0 I1Cent=   200000004 NGrid=           0
         NMat0=    1 NMatS0=      1 NMatT0=    0 NMatD0=    1 NMtDS0=    0 NMtDT0=    0
 Petite list used in FoFCou.
 Harris En= -7518.61687132751    
 JPrj=0 DoOrth=F DoCkMO=F.
 Leave Link  401 at Tue Mar  6 11:57:48 2018, MaxMem=   536870912 cpu:         9.9
 (Enter /share/apps//mg09/l502.exe)
 Closed shell SCF:
 Using DIIS extrapolation, IDIIS=  1040.
 Integral symmetry usage will be decided dynamically.
 IVT=     1410107 IEndB=     1410107 NGot=   536870912 MDV=   536322046
 LenX=   536322046 LenY=   536052166
 Requested convergence on RMS density matrix=1.00D-08 within 768 cycles.
 Requested convergence on MAX density matrix=1.00D-06.
 Requested convergence on             energy=1.00D-06.
 No special actions if energy rises.
 Fock matrices will be formed incrementally for  20 cycles.

 Cycle   1  Pass 1  IDiag  1:
 FoFJK:  IHMeth= 1 ICntrl=       0 DoSepK=F KAlg= 0 I1Cent=   0 FoldK=F
 IRaf= 880000000 NMat=   1 IRICut=       1 DoRegI=T DoRafI=F ISym2E= 0.
 FoFCou: FMM=F IPFlag=           0 FMFlag=      100000 FMFlg1=           0
         NFxFlg=           0 DoJE=F BraDBF=F KetDBF=F FulRan=T
         wScrn=  0.000000 ICntrl=       0 IOpCl=  0 I1Cent=           0 NGrid=           0
         NMat0=    1 NMatS0=      1 NMatT0=    0 NMatD0=    1 NMtDS0=    0 NMtDT0=    0
 Symmetry not used in FoFCou.
 Defaulting to unpruned grid for atomic number  83.
 Defaulting to unpruned grid for atomic number  83.
 Defaulting to unpruned grid for atomic number  83.
 Defaulting to unpruned grid for atomic number  83.
 E= -7517.16062539353    
 DIIS: error= 3.32D-02 at cycle   1 NSaved=   1.
 NSaved= 1 IEnMin= 1 EnMin= -7517.16062539353     IErMin= 1 ErrMin= 3.32D-02
 ErrMax= 3.32D-02  0.00D+00 EMaxC= 1.00D-01 BMatC= 1.54D+00 BMatP= 1.54D+00
 IDIUse=3 WtCom= 6.68D-01 WtEn= 3.32D-01
 Coeff-Com:  0.100D+01
 Coeff-En:   0.100D+01
 Coeff:      0.100D+01
 Gap=     0.148 Goal=   None    Shift=    0.000
 GapD=    0.148 DampG=1.000 DampE=0.500 DampFc=0.5000 IDamp=-1.
 Damping current iteration by 5.00D-01
 RMSDP=7.11D-03 MaxDP=2.21D-01              OVMax= 9.97D-01

 Cycle   2  Pass 1  IDiag  1:
 RMSU=  3.56D-03    CP:  1.00D+00
 E= -7516.32897336649     Delta-E=        0.831652027040 Rises=F Damp=T
 DIIS: error= 2.49D-02 at cycle   2 NSaved=   2.
 NSaved= 2 IEnMin= 1 EnMin= -7517.16062539353     IErMin= 2 ErrMin= 2.49D-02
 ErrMax= 2.49D-02  0.00D+00 EMaxC= 1.00D-01 BMatC= 5.49D-01 BMatP= 1.54D+00
 IDIUse=3 WtCom= 7.51D-01 WtEn= 2.49D-01
 Coeff-Com:  0.286D+00 0.714D+00
 Coeff-En:   0.728D+00 0.272D+00
 Coeff:      0.396D+00 0.604D+00
 Gap=     0.022 Goal=   None    Shift=    0.000
 RMSDP=4.61D-03 MaxDP=2.06D-01 DE= 8.32D-01 OVMax= 9.11D-01

 Cycle   3  Pass 1  IDiag  1:
 RMSU=  3.28D-03    CP:  1.01D+00  8.87D-02
 E= -7515.31064568987     Delta-E=        1.018327676622 Rises=F Damp=F
 DIIS: error= 5.37D-02 at cycle   3 NSaved=   3.
 NSaved= 3 IEnMin= 1 EnMin= -7517.16062539353     IErMin= 2 ErrMin= 2.49D-02
 ErrMax= 5.37D-02  0.00D+00 EMaxC= 1.00D-01 BMatC= 1.86D+00 BMatP= 5.49D-01
 IDIUse=2 WtCom= 0.00D+00 WtEn= 1.00D+00
 Rare condition: small coef for last iteration:  0.000D+00
 Coeff-En:   0.536D+00 0.279D+00 0.185D+00
 Coeff:      0.536D+00 0.279D+00 0.185D+00
 Gap=     0.245 Goal=   None    Shift=    0.000
 RMSDP=5.33D-03 MaxDP=2.28D-01 DE= 1.02D+00 OVMax= 6.92D-01

 Cycle   4  Pass 1  IDiag  1:
 RMSU=  2.47D-03    CP:  1.01D+00  1.01D+00 -4.13D-02
 E= -7516.44063471776     Delta-E=       -1.129989027890 Rises=F Damp=F
 DIIS: error= 3.65D-02 at cycle   4 NSaved=   4.
 NSaved= 4 IEnMin= 1 EnMin= -7517.16062539353     IErMin= 2 ErrMin= 2.49D-02
 ErrMax= 3.65D-02  0.00D+00 EMaxC= 1.00D-01 BMatC= 1.10D+00 BMatP= 5.49D-01
 IDIUse=2 WtCom= 0.00D+00 WtEn= 1.00D+00
 EnCoef did     8 forward-backward iterations
 Coeff-En:   0.494D+00 0.000D+00 0.108D+00 0.398D+00
 Coeff:      0.494D+00 0.000D+00 0.108D+00 0.398D+00
 Gap=     0.174 Goal=   None    Shift=    0.000
 RMSDP=3.02D-03 MaxDP=1.07D-01 DE=-1.13D+00 OVMax= 4.28D-01

 Cycle   5  Pass 1  IDiag  1:
 RMSU=  1.13D-03    CP:  1.00D+00  4.04D-01  3.36D-01  4.76D-01
 E= -7517.72418705866     Delta-E=       -1.283552340905 Rises=F Damp=F
 DIIS: error= 8.08D-03 at cycle   5 NSaved=   5.
 NSaved= 5 IEnMin= 5 EnMin= -7517.72418705866     IErMin= 5 ErrMin= 8.08D-03
 ErrMax= 8.08D-03  0.00D+00 EMaxC= 1.00D-01 BMatC= 1.26D-01 BMatP= 5.49D-01
 IDIUse=3 WtCom= 9.19D-01 WtEn= 8.08D-02
 Coeff-Com:  0.307D+00-0.359D+00-0.152D+00 0.349D+00 0.855D+00
 Coeff-En:   0.000D+00 0.000D+00 0.000D+00 0.593D-01 0.941D+00
 Coeff:      0.282D+00-0.330D+00-0.140D+00 0.326D+00 0.862D+00
 Gap=     0.130 Goal=   None    Shift=    0.000
 RMSDP=1.09D-03 MaxDP=3.85D-02 DE=-1.28D+00 OVMax= 1.24D-01

 Cycle   6  Pass 1  IDiag  1:
 RMSU=  4.42D-04    CP:  1.00D+00  4.42D-01  6.29D-02  5.48D-01  6.73D-01
 E= -7517.78503797564     Delta-E=       -0.060850916971 Rises=F Damp=F
 DIIS: error= 4.88D-03 at cycle   6 NSaved=   6.
 NSaved= 6 IEnMin= 6 EnMin= -7517.78503797564     IErMin= 6 ErrMin= 4.88D-03
 ErrMax= 4.88D-03  0.00D+00 EMaxC= 1.00D-01 BMatC= 2.69D-02 BMatP= 1.26D-01
 IDIUse=3 WtCom= 9.51D-01 WtEn= 4.88D-02
 Coeff-Com:  0.487D-01-0.135D-01-0.263D-01-0.115D-01 0.387D+00 0.616D+00
 Coeff-En:   0.000D+00 0.000D+00 0.000D+00 0.000D+00 0.310D+00 0.690D+00
 Coeff:      0.463D-01-0.128D-01-0.250D-01-0.110D-01 0.383D+00 0.619D+00
 Gap=     0.129 Goal=   None    Shift=    0.000
 RMSDP=5.03D-04 MaxDP=2.25D-02 DE=-6.09D-02 OVMax= 6.43D-02

 Cycle   7  Pass 1  IDiag  1:
 RMSU=  2.01D-04    CP:  1.00D+00  3.90D-01  1.49D-01  4.79D-01  8.20D-01
                    CP:  5.46D-01
 E= -7517.81383942639     Delta-E=       -0.028801450759 Rises=F Damp=F
 DIIS: error= 1.66D-03 at cycle   7 NSaved=   7.
 NSaved= 7 IEnMin= 7 EnMin= -7517.81383942639     IErMin= 7 ErrMin= 1.66D-03
 ErrMax= 1.66D-03  0.00D+00 EMaxC= 1.00D-01 BMatC= 2.40D-03 BMatP= 2.69D-02
 IDIUse=3 WtCom= 9.83D-01 WtEn= 1.66D-02
 Coeff-Com:  0.124D-01-0.699D-03-0.603D-02-0.154D-01 0.178D+00 0.399D+00
 Coeff-Com:  0.433D+00
 Coeff-En:   0.000D+00 0.000D+00 0.000D+00 0.000D+00 0.000D+00 0.837D-01
 Coeff-En:   0.916D+00
 Coeff:      0.122D-01-0.687D-03-0.593D-02-0.151D-01 0.175D+00 0.393D+00
 Coeff:      0.441D+00
 Gap=     0.129 Goal=   None    Shift=    0.000
 RMSDP=1.94D-04 MaxDP=7.76D-03 DE=-2.88D-02 OVMax= 2.21D-02

 Cycle   8  Pass 1  IDiag  1:
 RMSU=  1.19D-04    CP:  1.00D+00  3.96D-01  1.42D-01  4.88D-01  8.02D-01
                    CP:  6.86D-01  3.41D-01
 E= -7517.81532480399     Delta-E=       -0.001485377594 Rises=F Damp=F
 DIIS: error= 1.40D-03 at cycle   8 NSaved=   8.
 NSaved= 8 IEnMin= 8 EnMin= -7517.81532480399     IErMin= 8 ErrMin= 1.40D-03
 ErrMax= 1.40D-03  0.00D+00 EMaxC= 1.00D-01 BMatC= 1.02D-03 BMatP= 2.40D-03
 IDIUse=3 WtCom= 9.86D-01 WtEn= 1.40D-02
 Coeff-Com:  0.186D-02-0.195D-02-0.464D-03-0.777D-02 0.757D-01 0.215D+00
 Coeff-Com:  0.381D+00 0.336D+00
 Coeff-En:   0.000D+00 0.000D+00 0.000D+00 0.000D+00 0.000D+00 0.000D+00
 Coeff-En:   0.366D+00 0.634D+00
 Coeff:      0.184D-02-0.192D-02-0.457D-03-0.766D-02 0.746D-01 0.212D+00
 Coeff:      0.381D+00 0.340D+00
 Gap=     0.128 Goal=   None    Shift=    0.000
 RMSDP=9.08D-05 MaxDP=3.42D-03 DE=-1.49D-03 OVMax= 1.12D-02

 Cycle   9  Pass 1  IDiag  1:
 RMSU=  2.27D-05    CP:  1.00D+00  3.98D-01  1.39D-01  4.90D-01  8.01D-01
                    CP:  6.64D-01  5.44D-01  3.66D-01
 E= -7517.81663315846     Delta-E=       -0.001308354469 Rises=F Damp=F
 DIIS: error= 2.15D-04 at cycle   9 NSaved=   9.
 NSaved= 9 IEnMin= 9 EnMin= -7517.81663315846     IErMin= 9 ErrMin= 2.15D-04
 ErrMax= 2.15D-04  0.00D+00 EMaxC= 1.00D-01 BMatC= 3.36D-05 BMatP= 1.02D-03
 IDIUse=3 WtCom= 9.98D-01 WtEn= 2.15D-03
 Coeff-Com:  0.230D-03 0.487D-04 0.329D-03-0.347D-02 0.227D-01 0.609D-01
 Coeff-Com:  0.151D+00 0.181D+00 0.588D+00
 Coeff-En:   0.000D+00 0.000D+00 0.000D+00 0.000D+00 0.000D+00 0.000D+00
 Coeff-En:   0.000D+00 0.000D+00 0.100D+01
 Coeff:      0.229D-03 0.486D-04 0.329D-03-0.346D-02 0.226D-01 0.607D-01
 Coeff:      0.150D+00 0.181D+00 0.589D+00
 Gap=     0.128 Goal=   None    Shift=    0.000
 RMSDP=1.97D-05 MaxDP=7.14D-04 DE=-1.31D-03 OVMax= 2.89D-03

 Cycle  10  Pass 1  IDiag  1:
 RMSU=  9.90D-06    CP:  1.00D+00  3.97D-01  1.42D-01  4.88D-01  8.07D-01
                    CP:  6.58D-01  5.48D-01  4.31D-01  7.72D-01
 E= -7517.81667859329     Delta-E=       -0.000045434834 Rises=F Damp=F
 DIIS: error= 5.93D-05 at cycle  10 NSaved=  10.
 NSaved=10 IEnMin=10 EnMin= -7517.81667859329     IErMin=10 ErrMin= 5.93D-05
 ErrMax= 5.93D-05  0.00D+00 EMaxC= 1.00D-01 BMatC= 3.07D-06 BMatP= 3.36D-05
 IDIUse=1 WtCom= 1.00D+00 WtEn= 0.00D+00
 Coeff-Com:  0.142D-03-0.381D-03 0.343D-04-0.448D-03 0.219D-02 0.178D-02
 Coeff-Com:  0.264D-01 0.499D-01 0.346D+00 0.574D+00
 Coeff:      0.142D-03-0.381D-03 0.343D-04-0.448D-03 0.219D-02 0.178D-02
 Coeff:      0.264D-01 0.499D-01 0.346D+00 0.574D+00
 Gap=     0.128 Goal=   None    Shift=    0.000
 RMSDP=6.27D-06 MaxDP=7.05D-04 DE=-4.54D-05 OVMax= 6.39D-04

 Cycle  11  Pass 1  IDiag  1:
 RMSU=  3.75D-06    CP:  1.00D+00  3.97D-01  1.42D-01  4.88D-01  8.07D-01
                    CP:  6.57D-01  5.55D-01  4.41D-01  8.70D-01  6.32D-01
 E= -7517.81668170833     Delta-E=       -0.000003115039 Rises=F Damp=F
 DIIS: error= 1.35D-05 at cycle  11 NSaved=  11.
 NSaved=11 IEnMin=11 EnMin= -7517.81668170833     IErMin=11 ErrMin= 1.35D-05
 ErrMax= 1.35D-05  0.00D+00 EMaxC= 1.00D-01 BMatC= 2.70D-07 BMatP= 3.07D-06
 IDIUse=1 WtCom= 1.00D+00 WtEn= 0.00D+00
 Coeff-Com: -0.466D-04 0.189D-04 0.113D-03-0.564D-04-0.186D-02-0.573D-02
 Coeff-Com: -0.617D-02 0.739D-03 0.104D+00 0.284D+00 0.625D+00
 Coeff:     -0.466D-04 0.189D-04 0.113D-03-0.564D-04-0.186D-02-0.573D-02
 Coeff:     -0.617D-02 0.739D-03 0.104D+00 0.284D+00 0.625D+00
 Gap=     0.128 Goal=   None    Shift=    0.000
 RMSDP=1.74D-06 MaxDP=1.50D-04 DE=-3.12D-06 OVMax= 2.19D-04

 Cycle  12  Pass 1  IDiag  1:
 RMSU=  7.91D-07    CP:  1.00D+00  3.97D-01  1.42D-01  4.88D-01  8.07D-01
                    CP:  6.58D-01  5.56D-01  4.43D-01  8.89D-01  7.22D-01
                    CP:  8.06D-01
 E= -7517.81668200360     Delta-E=       -0.000000295271 Rises=F Damp=F
 DIIS: error= 3.07D-06 at cycle  12 NSaved=  12.
 NSaved=12 IEnMin=12 EnMin= -7517.81668200360     IErMin=12 ErrMin= 3.07D-06
 ErrMax= 3.07D-06  0.00D+00 EMaxC= 1.00D-01 BMatC= 1.31D-08 BMatP= 2.70D-07
 IDIUse=1 WtCom= 1.00D+00 WtEn= 0.00D+00
 Coeff-Com: -0.169D-04 0.217D-04 0.265D-04-0.510D-05-0.771D-03-0.196D-02
 Coeff-Com: -0.440D-02-0.419D-02 0.138D-01 0.642D-01 0.237D+00 0.696D+00
 Coeff:     -0.169D-04 0.217D-04 0.265D-04-0.510D-05-0.771D-03-0.196D-02
 Coeff:     -0.440D-02-0.419D-02 0.138D-01 0.642D-01 0.237D+00 0.696D+00
 Gap=     0.128 Goal=   None    Shift=    0.000
 RMSDP=4.76D-07 MaxDP=1.79D-05 DE=-2.95D-07 OVMax= 5.92D-05

 Cycle  13  Pass 1  IDiag  1:
 RMSU=  3.40D-07    CP:  1.00D+00  3.97D-01  1.42D-01  4.88D-01  8.07D-01
                    CP:  6.58D-01  5.56D-01  4.42D-01  9.00D-01  7.34D-01
                    CP:  8.31D-01  9.31D-01
 E= -7517.81668201276     Delta-E=       -0.000000009160 Rises=F Damp=F
 DIIS: error= 2.06D-06 at cycle  13 NSaved=  13.
 NSaved=13 IEnMin=13 EnMin= -7517.81668201276     IErMin=13 ErrMin= 2.06D-06
 ErrMax= 2.06D-06  0.00D+00 EMaxC= 1.00D-01 BMatC= 5.43D-09 BMatP= 1.31D-08
 IDIUse=1 WtCom= 1.00D+00 WtEn= 0.00D+00
 Coeff-Com: -0.460D-05 0.433D-05 0.487D-05 0.526D-05-0.334D-03-0.746D-03
 Coeff-Com: -0.243D-02-0.289D-02-0.755D-03 0.143D-01 0.989D-01 0.460D+00
 Coeff-Com:  0.434D+00
 Coeff:     -0.460D-05 0.433D-05 0.487D-05 0.526D-05-0.334D-03-0.746D-03
 Coeff:     -0.243D-02-0.289D-02-0.755D-03 0.143D-01 0.989D-01 0.460D+00
 Coeff:      0.434D+00
 Gap=     0.128 Goal=   None    Shift=    0.000
 RMSDP=2.90D-07 MaxDP=1.28D-05 DE=-9.16D-09 OVMax= 3.59D-05

 Cycle  14  Pass 1  IDiag  1:
 RMSU=  1.84D-07    CP:  1.00D+00  3.97D-01  1.42D-01  4.88D-01  8.07D-01
                    CP:  6.58D-01  5.56D-01  4.43D-01  9.02D-01  7.36D-01
                    CP:  8.50D-01  1.01D+00  4.48D-01
 E= -7517.81668201668     Delta-E=       -0.000000003918 Rises=F Damp=F
 DIIS: error= 1.67D-06 at cycle  14 NSaved=  14.
 NSaved=14 IEnMin=14 EnMin= -7517.81668201668     IErMin=14 ErrMin= 1.67D-06
 ErrMax= 1.67D-06  0.00D+00 EMaxC= 1.00D-01 BMatC= 2.04D-09 BMatP= 5.43D-09
 IDIUse=1 WtCom= 1.00D+00 WtEn= 0.00D+00
 Coeff-Com: -0.904D-06-0.770D-06-0.147D-05 0.601D-05-0.105D-03-0.161D-03
 Coeff-Com: -0.109D-02-0.154D-02-0.454D-02-0.504D-02 0.257D-01 0.221D+00
 Coeff-Com:  0.363D+00 0.402D+00
 Coeff:     -0.904D-06-0.770D-06-0.147D-05 0.601D-05-0.105D-03-0.161D-03
 Coeff:     -0.109D-02-0.154D-02-0.454D-02-0.504D-02 0.257D-01 0.221D+00
 Coeff:      0.363D+00 0.402D+00
 Gap=     0.128 Goal=   None    Shift=    0.000
 RMSDP=1.58D-07 MaxDP=6.20D-06 DE=-3.92D-09 OVMax= 2.15D-05

 Cycle  15  Pass 1  IDiag  1:
 RMSU=  7.94D-08    CP:  1.00D+00  3.97D-01  1.42D-01  4.88D-01  8.07D-01
                    CP:  6.58D-01  5.56D-01  4.43D-01  9.03D-01  7.37D-01
                    CP:  8.61D-01  1.02D+00  6.57D-01  4.59D-01
 E= -7517.81668201896     Delta-E=       -0.000000002285 Rises=F Damp=F
 DIIS: error= 4.71D-07 at cycle  15 NSaved=  15.
 NSaved=15 IEnMin=15 EnMin= -7517.81668201896     IErMin=15 ErrMin= 4.71D-07
 ErrMax= 4.71D-07  0.00D+00 EMaxC= 1.00D-01 BMatC= 2.76D-10 BMatP= 2.04D-09
 IDIUse=1 WtCom= 1.00D+00 WtEn= 0.00D+00
 Coeff-Com: -0.973D-06 0.137D-05-0.169D-05 0.201D-05 0.874D-05 0.890D-04
 Coeff-Com: -0.180D-03-0.423D-03-0.359D-02-0.871D-02-0.896D-02 0.401D-01
 Coeff-Com:  0.150D+00 0.301D+00 0.531D+00
 Coeff:     -0.973D-06 0.137D-05-0.169D-05 0.201D-05 0.874D-05 0.890D-04
 Coeff:     -0.180D-03-0.423D-03-0.359D-02-0.871D-02-0.896D-02 0.401D-01
 Coeff:      0.150D+00 0.301D+00 0.531D+00
 Gap=     0.128 Goal=   None    Shift=    0.000
 RMSDP=5.74D-08 MaxDP=3.09D-06 DE=-2.28D-09 OVMax= 9.77D-06

 Cycle  16  Pass 1  IDiag  1:
 RMSU=  2.39D-08    CP:  1.00D+00  3.97D-01  1.42D-01  4.88D-01  8.07D-01
                    CP:  6.58D-01  5.56D-01  4.43D-01  9.04D-01  7.38D-01
                    CP:  8.65D-01  1.04D+00  6.65D-01  6.17D-01  6.47D-01
 E= -7517.81668201936     Delta-E=       -0.000000000397 Rises=F Damp=F
 DIIS: error= 1.79D-07 at cycle  16 NSaved=  16.
 NSaved=16 IEnMin=16 EnMin= -7517.81668201936     IErMin=16 ErrMin= 1.79D-07
 ErrMax= 1.79D-07  0.00D+00 EMaxC= 1.00D-01 BMatC= 2.88D-11 BMatP= 2.76D-10
 IDIUse=1 WtCom= 1.00D+00 WtEn= 0.00D+00
 Coeff-Com: -0.538D-06 0.132D-05-0.139D-05 0.174D-06 0.195D-04 0.738D-04
 Coeff-Com:  0.742D-04 0.363D-06-0.109D-02-0.353D-02-0.772D-02-0.592D-02
 Coeff-Com:  0.315D-01 0.105D+00 0.277D+00 0.604D+00
 Coeff:     -0.538D-06 0.132D-05-0.139D-05 0.174D-06 0.195D-04 0.738D-04
 Coeff:      0.742D-04 0.363D-06-0.109D-02-0.353D-02-0.772D-02-0.592D-02
 Coeff:      0.315D-01 0.105D+00 0.277D+00 0.604D+00
 Gap=     0.128 Goal=   None    Shift=    0.000
 RMSDP=1.66D-08 MaxDP=6.33D-07 DE=-3.97D-10 OVMax= 1.99D-06

 Cycle  17  Pass 1  IDiag  1:
 RMSU=  8.90D-09    CP:  1.00D+00  3.97D-01  1.42D-01  4.88D-01  8.07D-01
                    CP:  6.58D-01  5.56D-01  4.43D-01  9.04D-01  7.38D-01
                    CP:  8.65D-01  1.05D+00  6.72D-01  6.24D-01  7.16D-01
                    CP:  7.25D-01
 E= -7517.81668201934     Delta-E=        0.000000000018 Rises=F Damp=F
 DIIS: error= 7.00D-08 at cycle  17 NSaved=  17.
 NSaved=17 IEnMin=16 EnMin= -7517.81668201936     IErMin=17 ErrMin= 7.00D-08
 ErrMax= 7.00D-08  0.00D+00 EMaxC= 1.00D-01 BMatC= 3.45D-12 BMatP= 2.88D-11
 IDIUse=1 WtCom= 1.00D+00 WtEn= 0.00D+00
 Coeff-Com: -0.258D-06 0.514D-06-0.599D-06 0.138D-06 0.768D-05 0.247D-04
 Coeff-Com:  0.626D-04 0.592D-04-0.144D-04-0.484D-03-0.247D-02-0.861D-02
 Coeff-Com: -0.302D-02 0.129D-01 0.619D-01 0.283D+00 0.657D+00
 Coeff:     -0.258D-06 0.514D-06-0.599D-06 0.138D-06 0.768D-05 0.247D-04
 Coeff:      0.626D-04 0.592D-04-0.144D-04-0.484D-03-0.247D-02-0.861D-02
 Coeff:     -0.302D-02 0.129D-01 0.619D-01 0.283D+00 0.657D+00
 Gap=     0.128 Goal=   None    Shift=    0.000
 RMSDP=6.18D-09 MaxDP=4.45D-07 DE= 1.82D-11 OVMax= 6.63D-07

 SCF Done:  E(RPBE1PBE) =  -7517.81668202     A.U. after   17 cycles
            NFock= 17  Conv=0.62D-08     -V/T= 2.1285
 KE= 6.661914022318D+03 PE=-2.471798820558D+04 EE= 6.974870745669D+03
 Leave Link  502 at Tue Mar  6 12:10:36 2018, MaxMem=   536870912 cpu:      3020.6
 (Enter /share/apps//mg09/l601.exe)
 Copying SCF densities to generalized density rwf, IOpCl= 0 IROHF=0.

 **********************************************************************

            Population analysis using the SCF density.

 **********************************************************************

 Orbital symmetries:
       Occupied  (A) (A) (A) (A) (A) (A) (A) (A) (A) (A) (A) (A)
                 (A) (A) (A) (A) (A) (A) (A) (A) (A) (A) (A) (A)
                 (A) (A) (A) (A) (A) (A) (A) (A) (A) (A) (A) (A)
                 (A) (A) (A) (A) (A) (A) (A) (A) (A) (A) (A) (A)
                 (A) (A) (A) (A) (A) (A) (A) (A) (A) (A) (A) (A)
                 (A) (A) (A) (A) (A) (A) (A) (A) (A) (A) (A) (A)
                 (A) (A) (A) (A) (A) (A) (A) (A) (A) (A) (A) (A)
                 (A) (A) (A) (A) (A) (A) (A) (A) (A) (A) (A) (A)
                 (A) (A) (A) (A) (A) (A) (A) (A) (A) (A) (A) (A)
                 (A) (A) (A) (A) (A) (A) (A) (A)
       Virtual   (A) (A) (A) (A) (A) (A) (A) (A) (A) (A) (A) (A)
                 (A) (A) (A) (A) (A) (A) (A) (A) (A) (A) (A) (A)
                 (A) (A) (A) (A) (A) (A) (A) (A) (A) (A) (A) (A)
                 (A) (A) (A) (A) (A) (A) (A) (A) (A) (A) (A) (A)
                 (A) (A) (A) (A) (A) (A) (A) (A) (A) (A) (A) (A)
                 (A) (A) (A) (A) (A) (A) (A) (A) (A) (A) (A) (A)
                 (A) (A) (A) (A) (A) (A) (A) (A) (A) (A) (A) (A)
                 (A) (A) (A) (A) (A) (A) (A) (A) (A) (A) (A) (A)
                 (A) (A) (A) (A) (A) (A) (A) (A) (A) (A) (A) (A)
                 (A) (A) (A) (A) (A) (A) (A) (A) (A) (A) (A) (A)
                 (A) (A) (A) (A) (A) (A) (A) (A) (A) (A) (A) (A)
                 (A) (A) (A) (A) (A) (A) (A) (A) (A) (A) (A) (A)
                 (A) (A) (A) (A) (A) (A) (A) (A) (A) (A) (A) (A)
                 (A) (A) (A) (A) (A) (A) (A) (A) (A) (A) (A) (A)
                 (A) (A) (A) (A) (A) (A) (A) (A) (A) (A) (A) (A)
                 (A) (A) (A) (A) (A) (A) (A) (A) (A) (A) (A) (A)
                 (A) (A) (A) (A) (A) (A) (A) (A) (A) (A) (A) (A)
                 (A) (A) (A) (A) (A) (A) (A) (A) (A) (A) (A) (A)
                 (A) (A) (A) (A) (A) (A) (A) (A) (A) (A) (A) (A)
                 (A) (A) (A) (A) (A) (A) (A) (A) (A) (A) (A) (A)
                 (A) (A) (A) (A) (A) (A) (A) (A) (A) (A) (A) (A)
                 (A) (A) (A) (A) (A) (A) (A) (A) (A) (A) (A) (A)
                 (A) (A) (A) (A) (A) (A) (A) (A) (A) (A) (A) (A)
                 (A) (A) (A) (A) (A) (A) (A) (A) (A) (A) (A) (A)
                 (A) (A) (A) (A) (A) (A) (A) (A) (A) (A) (A) (A)
                 (A) (A) (A) (A) (A) (A) (A) (A) (A) (A) (A) (A)
                 (A) (A) (A) (A) (A) (A) (A) (A) (A) (A) (A) (A)
                 (A) (A) (A) (A)
 The electronic state is 1-A.
 Alpha  occ. eigenvalues -- -399.09942-399.09881-399.09877 -49.91503 -49.91434
 Alpha  occ. eigenvalues --  -49.91431 -44.39591 -44.39573 -44.39521 -44.39518
 Alpha  occ. eigenvalues --  -44.39515 -44.39507 -44.39504 -44.39447 -44.39443
 Alpha  occ. eigenvalues --   -6.28005  -6.27928  -6.27925  -6.01859  -6.01857
 Alpha  occ. eigenvalues --   -6.01698  -6.01696  -5.13611  -5.12458  -4.43457
 Alpha  occ. eigenvalues --   -4.43405  -4.43374  -4.43371  -4.43337  -4.43333
 Alpha  occ. eigenvalues --   -4.43215  -4.43133  -4.43129  -3.74166  -3.74158
 Alpha  occ. eigenvalues --   -3.74000  -3.73993  -3.73925  -3.73920  -3.73909
 Alpha  occ. eigenvalues --   -3.73904  -3.73762  -3.73757  -3.73744  -3.73739
 Alpha  occ. eigenvalues --   -3.46844  -3.46778  -3.46558  -3.45672  -3.45646
 Alpha  occ. eigenvalues --   -3.45406  -1.22953  -1.22928  -1.22862  -1.22854
 Alpha  occ. eigenvalues --   -1.22846  -1.22832  -1.22767  -1.22718  -1.22705
 Alpha  occ. eigenvalues --   -1.22652  -1.22640  -1.22625  -1.22618  -1.22602
 Alpha  occ. eigenvalues --   -1.22596  -1.08460  -1.08089  -1.08059  -1.07977
 Alpha  occ. eigenvalues --   -1.07901  -1.07767  -1.07738  -1.07696  -1.07606
 Alpha  occ. eigenvalues --   -1.07560  -1.07543  -1.07431  -1.07331  -1.07292
 Alpha  occ. eigenvalues --   -1.07240  -1.07180  -1.07121  -1.07105  -1.07057
 Alpha  occ. eigenvalues --   -1.06881  -1.03053  -1.03045  -1.02906  -1.02857
 Alpha  occ. eigenvalues --   -1.02780  -1.01919  -1.01879  -1.01751  -1.01663
 Alpha  occ. eigenvalues --   -1.01586  -0.67057  -0.61104  -0.60740  -0.53939
 Alpha  occ. eigenvalues --   -0.53668  -0.45968  -0.45174  -0.42379  -0.39630
 Alpha  occ. eigenvalues --   -0.29142  -0.27586  -0.25967  -0.25589  -0.25424
 Alpha  occ. eigenvalues --   -0.24147  -0.23405  -0.23257  -0.21504  -0.20659
 Alpha  occ. eigenvalues --   -0.20459
 Alpha virt. eigenvalues --   -0.07667  -0.07639  -0.06868  -0.05813  -0.05475
 Alpha virt. eigenvalues --   -0.05290  -0.04802  -0.04476  -0.04303  -0.04171
 Alpha virt. eigenvalues --   -0.03964  -0.03052  -0.00925   0.03622   0.04432
 Alpha virt. eigenvalues --    0.04846   0.06724   0.07925   0.08429   0.09361
 Alpha virt. eigenvalues --    0.09444   0.09959   0.10087   0.11020   0.11145
 Alpha virt. eigenvalues --    0.11419   0.11513   0.11815   0.11930   0.13498
 Alpha virt. eigenvalues --    0.13535   0.14679   0.15385   0.16954   0.17776
 Alpha virt. eigenvalues --    0.18129   0.18738   0.19308   0.20502   0.20692
 Alpha virt. eigenvalues --    0.21836   0.21942   0.23278   0.23769   0.24525
 Alpha virt. eigenvalues --    0.24536   0.25277   0.25842   0.26317   0.27726
 Alpha virt. eigenvalues --    0.27934   0.30912   0.31026   0.31223   0.31475
 Alpha virt. eigenvalues --    0.31854   0.32281   0.32752   0.33964   0.33983
 Alpha virt. eigenvalues --    0.34306   0.36144   0.36801   0.37827   0.38030
 Alpha virt. eigenvalues --    0.38128   0.39741   0.41213   0.41337   0.42056
 Alpha virt. eigenvalues --    0.42419   0.43082   0.43139   0.43374   0.43652
 Alpha virt. eigenvalues --    0.44466   0.47563   0.47701   0.47894   0.48983
 Alpha virt. eigenvalues --    0.49192   0.49400   0.50616   0.51669   0.52353
 Alpha virt. eigenvalues --    0.52741   0.53829   0.54677   0.57052   0.57103
 Alpha virt. eigenvalues --    0.57887   0.57981   0.58444   0.58708   0.59757
 Alpha virt. eigenvalues --    0.59779   0.60294   0.61314   0.62135   0.62250
 Alpha virt. eigenvalues --    0.63132   0.63422   0.64185   0.65010   0.65018
 Alpha virt. eigenvalues --    0.66220   0.66673   0.68301   0.68689   0.69205
 Alpha virt. eigenvalues --    0.69584   0.72233   0.73213   0.74703   0.74824
 Alpha virt. eigenvalues --    0.75649   0.75988   0.76688   0.78307   0.78771
 Alpha virt. eigenvalues --    0.80270   0.80784   0.80966   0.81865   0.82181
 Alpha virt. eigenvalues --    0.83041   0.83368   0.83657   0.84477   0.86898
 Alpha virt. eigenvalues --    0.87362   0.87464   0.88891   0.89513   0.90494
 Alpha virt. eigenvalues --    0.90603   0.91917   0.92922   0.92989   0.93833
 Alpha virt. eigenvalues --    0.94902   0.96350   0.96885   0.97555   0.98306
 Alpha virt. eigenvalues --    0.98734   0.99138   0.99674   1.00071   1.02856
 Alpha virt. eigenvalues --    1.04670   1.05110   1.06513   1.07462   1.07816
 Alpha virt. eigenvalues --    1.08718   1.08980   1.09396   1.10390   1.12150
 Alpha virt. eigenvalues --    1.12998   1.15012   1.16082   1.16542   1.18027
 Alpha virt. eigenvalues --    1.19005   1.19307   1.19406   1.19451   1.19665
 Alpha virt. eigenvalues --    1.19833   1.21114   1.21148   1.21784   1.21916
 Alpha virt. eigenvalues --    1.22273   1.22664   1.23449   1.24156   1.24299
 Alpha virt. eigenvalues --    1.24938   1.25416   1.25601   1.25808   1.27511
 Alpha virt. eigenvalues --    1.27750   1.27828   1.28208   1.28628   1.29059
 Alpha virt. eigenvalues --    1.30131   1.31242   1.31651   1.31916   1.32533
 Alpha virt. eigenvalues --    1.33934   1.34326   1.35420   1.37858   1.38756
 Alpha virt. eigenvalues --    1.39030   1.40667   1.40826   1.44422   1.44803
 Alpha virt. eigenvalues --    1.45040   1.45478   1.45953   1.46800   1.47921
 Alpha virt. eigenvalues --    1.49806   1.50853   1.50917   1.51410   1.52028
 Alpha virt. eigenvalues --    1.54227   1.56478   1.57999   1.60206   1.60782
 Alpha virt. eigenvalues --    1.61796   1.66249   1.74594   2.02686   2.06147
 Alpha virt. eigenvalues --    2.07571   2.11199   2.11692   2.14178   2.16041
 Alpha virt. eigenvalues --    2.17019   2.17039   2.19685   2.19792   2.20458
 Alpha virt. eigenvalues --    2.21943   2.22515   2.24177   2.24869   2.25646
 Alpha virt. eigenvalues --    2.25712   2.26424   2.28663   2.31571   2.32995
 Alpha virt. eigenvalues --    2.33061   2.36869   2.40206   2.41492   2.41795
 Alpha virt. eigenvalues --    2.42210   2.43530   2.43960   2.44857   2.47093
 Alpha virt. eigenvalues --    2.47973   2.49894   2.50753   2.52392   2.52926
 Alpha virt. eigenvalues --    2.54175   2.61127   2.61187   2.65091   2.66610
 Alpha virt. eigenvalues --    2.67225   2.67318   2.74618   2.74765   2.76412
 Alpha virt. eigenvalues --    2.78144   2.79707   2.82486   2.82668   2.83653
 Alpha virt. eigenvalues --    2.84630   2.84972   2.85182   2.88531   2.93460
 Alpha virt. eigenvalues --    3.23345   3.25596   3.26390   3.36276   3.37055
 Alpha virt. eigenvalues --    3.40826   3.92155   3.93897   3.94110   4.00705
 Alpha virt. eigenvalues --    4.04082   4.05643   4.08493   4.11055   4.13197
 Alpha virt. eigenvalues --    5.16747   5.39905   5.44666  35.33568  35.39654
 Alpha virt. eigenvalues --   35.40015  35.40375  35.45024  35.45157  35.48844
 Alpha virt. eigenvalues --   35.49347  35.54522  35.54826  35.55331  35.64940
 Alpha virt. eigenvalues --   35.81853  35.98411  35.99178  36.10038  36.19759
 Alpha virt. eigenvalues --   36.22549  36.97763  36.98579  36.99412  37.06352
 Alpha virt. eigenvalues --   37.08390  37.17020 113.58117 113.59595 120.20322
 Alpha virt. eigenvalues --  120.24112 120.24152 120.25729
          Condensed to atoms (all electrons):
               1          2          3          4          5          6
     1  Bi  22.406331  -0.037240   0.136381  -0.017743   0.189028  -0.018250
     2  Bi  -0.037240  22.377932  -0.016803   0.139564   0.199530   0.148811
     3  Sn   0.136381  -0.016803  21.361323  -0.015413   0.136376   0.080973
     4  Ge  -0.017743   0.139564  -0.015413  31.490259  -0.017744   0.074648
     5  Bi   0.189028   0.199530   0.136376  -0.017744  22.406328   0.142316
     6  Ge  -0.018250   0.148811   0.080973   0.074648   0.142316  31.523442
     7  Ge   0.142301  -0.018795   0.081044   0.074644  -0.018276  -0.017638
     8  Bi   0.199486   0.186701  -0.016792   0.139636  -0.037226  -0.018768
     9  Sn  -0.017055  -0.022279   0.158827   0.183804  -0.017061   0.169906
               7          8          9
     1  Bi   0.142301   0.199486  -0.017055
     2  Bi  -0.018795   0.186701  -0.022279
     3  Sn   0.081044  -0.016792   0.158827
     4  Ge   0.074644   0.139636   0.183804
     5  Bi  -0.018276  -0.037226  -0.017061
     6  Ge  -0.017638  -0.018768   0.169906
     7  Ge  31.523531   0.148729   0.169859
     8  Bi   0.148729  22.378014  -0.022281
     9  Sn   0.169859  -0.022281  21.386439
 Mulliken charges:
               1
     1  Bi   0.016761
     2  Bi   0.042579
     3  Sn   0.094083
     4  Ge  -0.051655
     5  Bi   0.016727
     6  Ge  -0.085439
     7  Ge  -0.085398
     8  Bi   0.042501
     9  Sn   0.009841
 Sum of Mulliken charges =   0.00000
 Mulliken charges with hydrogens summed into heavy atoms:
               1
     1  Bi   0.016761
     2  Bi   0.042579
     3  Sn   0.094083
     4  Ge  -0.051655
     5  Bi   0.016727
     6  Ge  -0.085439
     7  Ge  -0.085398
     8  Bi   0.042501
     9  Sn   0.009841
 Electronic spatial extent (au):  <R**2>=           6077.0990
 Charge=              0.0000 electrons
 Dipole moment (field-independent basis, Debye):
    X=             -0.9847    Y=             -1.6171    Z=              0.0031  Tot=              1.8933
 Quadrupole moment (field-independent basis, Debye-Ang):
   XX=           -214.9980   YY=           -219.2616   ZZ=           -219.8899
   XY=              0.1060   XZ=              0.0034   YZ=              0.0047
 Traceless Quadrupole moment (field-independent basis, Debye-Ang):
   XX=              3.0518   YY=             -1.2117   ZZ=             -1.8401
   XY=              0.1060   XZ=              0.0034   YZ=              0.0047
 Octapole moment (field-independent basis, Debye-Ang**2):
  XXX=           -125.5184  YYY=           -142.1865  ZZZ=              0.3017  XYY=            -37.8896
  XXY=            -41.7043  XXZ=              0.0741  XZZ=            -46.9399  YZZ=            -50.6198
  YYZ=              0.0820  XYZ=             -0.0122
 Hexadecapole moment (field-independent basis, Debye-Ang**3):
 XXXX=          -3474.9088 YYYY=          -3336.8611 ZZZZ=          -3045.4786 XXXY=            -75.0838
 XXXZ=              0.2064 YYYX=            -78.6780 YYYZ=              0.2470 ZZZX=              0.1288
 ZZZY=              0.1357 XXYY=          -1164.9005 XXZZ=          -1072.4996 YYZZ=          -1049.6355
 XXYZ=              0.1096 YYXZ=              0.1214 ZZXY=            -21.4022
 N-N= 3.563386755579D+03 E-N=-2.471798819191D+04  KE= 6.661914022318D+03
 No NMR shielding tensors so no spin-rotation constants.
 Leave Link  601 at Tue Mar  6 12:10:37 2018, MaxMem=   536870912 cpu:         1.2
 (Enter /share/apps//mg09/l701.exe)
 Compute integral first derivatives.
 ... and contract with generalized density number  0.
   1 Symmetry operations used in ECPInt.
 ECPInt:  NShTT=   10440 NPrTT=   41973 LenC2=    9681 LenP2D=   27458.
 LDataN:  DoStor=T MaxTD1= 9 Len=  602
 Leave Link  701 at Tue Mar  6 12:10:54 2018, MaxMem=   536870912 cpu:        68.9
 (Enter /share/apps//mg09/l702.exe)
 L702 exits ... SP integral derivatives will be done elsewhere.
 Leave Link  702 at Tue Mar  6 12:10:54 2018, MaxMem=   536870912 cpu:         0.1
 (Enter /share/apps//mg09/l703.exe)
 Compute integral first derivatives, UseDBF=F ICtDFT=           0.
 Integral derivatives from FoFJK, PRISM(SPDF).
 Calling FoFJK, ICntrl=      2127 FMM=F ISym2X=0 I1Cent= 0 IOpClX= 0 NMat=1 NMatS=1 NMatT=0.
 FoFJK:  IHMeth= 1 ICntrl=    2127 DoSepK=F KAlg= 0 I1Cent=   0 FoldK=F
 IRaf=         0 NMat=   1 IRICut=       1 DoRegI=T DoRafI=F ISym2E= 0.
 FoFCou: FMM=F IPFlag=           0 FMFlag=      100000 FMFlg1=         800
         NFxFlg=           0 DoJE=F BraDBF=F KetDBF=F FulRan=T
         wScrn=  0.000000 ICntrl=    2127 IOpCl=  0 I1Cent=           0 NGrid=           0
         NMat0=    1 NMatS0=      1 NMatT0=    0 NMatD0=    1 NMtDS0=    0 NMtDT0=    0
 Symmetry not used in FoFCou.
 Defaulting to unpruned grid for atomic number  83.
 Defaulting to unpruned grid for atomic number  83.
 Defaulting to unpruned grid for atomic number  83.
 Defaulting to unpruned grid for atomic number  83.
 Leave Link  703 at Tue Mar  6 12:14:03 2018, MaxMem=   536870912 cpu:       756.2
 (Enter /share/apps//mg09/l716.exe)
 Dipole        =-3.87414868D-01-6.36205283D-01 1.23640043D-03
 ***** Axes restored to original set *****
 -------------------------------------------------------------------
 Center     Atomic                   Forces (Hartrees/Bohr)
 Number     Number              X              Y              Z
 -------------------------------------------------------------------
      1       83           0.001379510    0.007582948    0.003442600
      2       83           0.008419455    0.002741391   -0.003663362
      3       50          -0.012076041    0.007387610   -0.000002686
      4       32           0.009098452   -0.012176464    0.000027594
      5       83           0.001347818    0.007560567   -0.003430562
      6       32          -0.002425839   -0.001971316   -0.014053146
      7       32          -0.002380362   -0.001896013    0.013995485
      8       83           0.008430273    0.002720308    0.003656822
      9       50          -0.011793266   -0.011949031    0.000027255
 -------------------------------------------------------------------
 Cartesian Forces:  Max     0.014053146 RMS     0.007331772
 Force constants in Cartesian coordinates: 
                1             2             3             4             5 
      1  0.107279D+00
      2  0.351978D-03  0.168072D+00
      3  0.130412D-01  0.230991D-01  0.128699D+00
      4  0.143069D-03  0.809040D-04  0.543349D-02  0.178505D+00
      5  0.330224D-03  0.155241D-03 -0.531714D-02  0.105173D-01  0.117402D+00
      6  0.559982D-02 -0.512649D-02 -0.537486D-04 -0.245864D-01 -0.196928D-01
      7 -0.479281D-01  0.837795D-02 -0.454561D-02 -0.467140D-02  0.102235D-02
      8 -0.234821D-01 -0.314714D-01 -0.146632D-01  0.276805D-02  0.596101D-02
      9 -0.259872D-01 -0.571181D-02 -0.238693D-01 -0.150849D-02  0.103605D-02
     10  0.558575D-02  0.357490D-02  0.197508D-02 -0.370445D-01 -0.271578D-01
     11  0.160274D-02 -0.466592D-02 -0.808832D-02  0.575059D-02 -0.594749D-01
     12 -0.106662D-02  0.130614D-02  0.348367D-02  0.625285D-02  0.329135D-01
     13 -0.141135D-01  0.192292D-02 -0.449655D-02 -0.392512D-01  0.352667D-01
     14  0.189819D-02 -0.270923D-01 -0.175536D-01  0.203418D-02 -0.364916D-01
     15  0.440849D-02  0.174802D-01 -0.539795D-01  0.116002D-01 -0.902021D-03
     16  0.447456D-02 -0.251628D-02 -0.380933D-02 -0.705389D-01 -0.198905D-01
     17  0.193790D-02  0.716366D-03 -0.194208D-02 -0.119739D-01 -0.233556D-01
     18  0.682894D-03 -0.923159D-02 -0.187776D-02  0.786576D-02  0.733102D-03
     19 -0.200616D-01 -0.730279D-02  0.443621D-02  0.966552D-03  0.183195D-02
     20 -0.156933D-01 -0.670464D-01  0.300025D-01 -0.293657D-02  0.530970D-02
     21 -0.676448D-03 -0.784059D-02 -0.358924D-01  0.931820D-02 -0.503173D-04
     22 -0.392485D-01  0.197669D-02 -0.115795D-01 -0.273665D-01  0.124843D-02
     23  0.352681D-01 -0.365147D-01  0.876563D-03  0.122029D-02 -0.130941D-01
     24  0.136116D-02 -0.113100D-01 -0.223390D-01 -0.180224D-01 -0.619307D-02
     25  0.386922D-02 -0.646627D-02 -0.455047D-03 -0.742292D-03 -0.316871D-02
     26 -0.221377D-02 -0.215278D-02 -0.641387D-02 -0.746077D-02  0.358845D-02
     27  0.263662D-02 -0.266494D-02  0.582912D-02  0.364681D-02 -0.252727D-02
                6             7             8             9            10 
      6  0.138256D+00
      7  0.737838D-02  0.204299D+00
      8 -0.112555D-02 -0.156912D-01  0.147914D+00
      9  0.357964D-02 -0.659344D-04 -0.338503D-04  0.113449D+00
     10  0.179699D-01 -0.370370D-02  0.403143D-02  0.663695D-05  0.183190D+00
     11  0.114591D-01  0.118416D-01 -0.132410D-02  0.208049D-05 -0.971190D-02
     12 -0.325006D-01 -0.454934D-05  0.101889D-04  0.815104D-02 -0.630978D-05
     13 -0.142064D-02 -0.478909D-01 -0.233984D-01  0.261002D-01  0.558007D-02
     14  0.113377D-01  0.839168D-02 -0.314372D-01  0.571650D-02  0.356948D-02
     15 -0.223879D-01  0.457881D-02  0.147261D-01 -0.239938D-01 -0.199074D-02
     16 -0.310522D-01 -0.314232D-01  0.126102D-01  0.185501D-01 -0.246789D-01
     17 -0.798702D-02  0.616750D-03 -0.198484D-01 -0.155419D-01  0.138733D-01
     18 -0.366903D-01 -0.132695D-01 -0.290586D-02 -0.325697D-01 -0.180158D-02
     19  0.169562D-02 -0.314603D-01  0.125764D-01 -0.185953D-01 -0.246730D-01
     20  0.440061D-02  0.681634D-03 -0.198334D-01  0.155183D-01  0.138561D-01
     21 -0.182386D-02  0.132616D-01  0.285694D-02 -0.326358D-01  0.175382D-02
     22  0.179656D-01 -0.467953D-02  0.277510D-02  0.151547D-02 -0.371049D-01
     23  0.609917D-02  0.100537D-02  0.596200D-02 -0.104567D-02 -0.272786D-01
     24 -0.547473D-01 -0.736677D-02  0.111288D-02  0.359140D-02 -0.179105D-01
     25  0.644999D-02 -0.325420D-01  0.278106D-01 -0.154799D-04 -0.671507D-01
     26  0.635236D-03 -0.162461D-01 -0.559227D-01  0.603228D-04  0.252431D-01
     27  0.636820D-02  0.335340D-04  0.223298D-04 -0.157024D-01  0.375205D-05
               11            12            13            14            15 
     11  0.233637D+00
     12 -0.854223D-04  0.143209D+00
     13  0.161830D-02  0.105784D-02  0.107254D+00
     14 -0.464923D-02 -0.129261D-02  0.261876D-03  0.167937D+00
     15  0.810447D-02  0.346768D-02 -0.129976D-01 -0.231940D-01  0.128881D+00
     16  0.179217D-02 -0.173155D-01 -0.200485D-01 -0.728319D-02 -0.444156D-02
     17 -0.338931D-01  0.168810D-01 -0.157273D-01 -0.670552D-01 -0.298985D-01
     18 -0.139579D-01 -0.361580D-01  0.682363D-03  0.793128D-02 -0.358267D-01
     19  0.186313D-02  0.172961D-01  0.448194D-02 -0.248971D-02  0.380450D-02
     20 -0.339218D-01 -0.169177D-01  0.194055D-02  0.740578D-03  0.193260D-02
     21  0.139421D-01 -0.362075D-01 -0.698680D-03  0.923224D-02 -0.191306D-02
     22  0.570920D-02 -0.627396D-02  0.122906D-03  0.781037D-04 -0.543551D-02
     23 -0.596156D-01 -0.328145D-01  0.324579D-03  0.181611D-03  0.531529D-02
     24 -0.114090D-01 -0.323693D-01 -0.559964D-02  0.512649D-02 -0.564698D-04
     25 -0.204658D-01  0.602060D-04  0.386490D-02 -0.646060D-02  0.473455D-03
     26 -0.360924D-01  0.000000D+00 -0.220912D-02 -0.213360D-02  0.643586D-02
     27  0.328416D-04 -0.210755D-01 -0.262723D-02  0.269593D-02  0.580891D-02
               16            17            18            19            20 
     16  0.164639D+00
     17  0.267291D-01  0.165692D+00
     18  0.184332D-01  0.203575D-01  0.207474D+00
     19  0.659189D-02 -0.115374D-02  0.254156D-02  0.164693D+00
     20 -0.115440D-02  0.638925D-02  0.345158D-02  0.266451D-01  0.165704D+00
     21 -0.257042D-02 -0.349656D-02 -0.113620D-01 -0.184164D-01 -0.202866D-01
     22  0.949782D-03 -0.296316D-02 -0.931287D-02 -0.705377D-01 -0.119721D-01
     23  0.182846D-02  0.530100D-02  0.258866D-04 -0.198038D-01 -0.233387D-01
     24 -0.170543D-02 -0.441402D-02 -0.179180D-02  0.311551D-01  0.796733D-02
     25 -0.299655D-01 -0.113389D-01 -0.582191D-02 -0.300012D-01 -0.113670D-01
     26 -0.121156D-01 -0.339467D-01 -0.640403D-02 -0.121665D-01 -0.340033D-01
     27  0.239111D-01  0.260416D-01 -0.511979D-01 -0.239173D-01 -0.260686D-01
               21            22            23            24            25 
     21  0.207701D+00
     22 -0.778208D-02  0.178622D+00
     23 -0.730493D-03  0.106183D-01  0.117521D+00
     24 -0.367438D-01  0.245198D-01  0.197329D-01  0.138075D+00
     25  0.581045D-02 -0.757011D-03 -0.318266D-02 -0.643131D-02  0.153425D+00
     26  0.637330D-02 -0.747054D-02  0.359758D-02 -0.613495D-03  0.346394D-01
     27 -0.511221D-01 -0.361694D-02  0.254084D-02  0.638088D-02 -0.703497D-04
               26            27 
     26  0.157065D+00
     27 -0.726958D-04  0.114711D+00
 Leave Link  716 at Tue Mar  6 12:14:03 2018, MaxMem=   536870912 cpu:         0.1
 (Enter /share/apps//mg09/l103.exe)

 GradGradGradGradGradGradGradGradGradGradGradGradGradGradGradGradGradGrad
 Berny optimization.
 Search for a local minimum.
 Step number   1 out of a maximum of  100
 All quantities printed in internal units (Hartrees-Bohrs-Radians)
 Second derivative matrix not updated -- first step.
 ITU=  0
     Eigenvalues ---    0.07870   0.11640   0.12062   0.12797   0.13353
     Eigenvalues ---    0.13485   0.14358   0.16007   0.16654   0.16739
     Eigenvalues ---    0.18292   0.21873   0.21891   0.22988   0.25505
     Eigenvalues ---    0.26320   0.27631   0.27817   0.28538   0.29803
     Eigenvalues ---    0.33021
 RFO step:  Lambda=-8.73125031D-03 EMin= 7.86970986D-02
 Linear search not attempted -- first point.
 TrRot=  0.000879 -0.001493 -0.000002 -0.000050  0.000000 -0.000050
 Variable       Old X    -DE/DX   Delta X   Delta X   Delta X     New X
                                 (Linear)    (Quad)   (Total)
    X1        0.57774   0.00138   0.00000   0.00133   0.00188   0.57962
    Y1       -3.37944   0.00758   0.00000   0.05347   0.05191  -3.32753
    Z1       -2.89657   0.00344   0.00000   0.03331   0.03330  -2.86327
    X2       -3.59416   0.00842   0.00000   0.05282   0.05376  -3.54041
    Y2        0.58082   0.00274   0.00000   0.00746   0.00632   0.58714
    Z2        2.89818  -0.00366   0.00000  -0.03201  -0.03201   2.86617
    X3        4.98423  -0.01208   0.00000  -0.07590  -0.07511   4.90912
    Y3       -0.94421   0.00739   0.00000   0.04601   0.04402  -0.90019
    Z3       -0.00345   0.00000   0.00000  -0.00003  -0.00003  -0.00348
    X4       -1.43140   0.00910   0.00000   0.04949   0.05083  -1.38057
    Y4        4.72535  -0.01218   0.00000  -0.06409  -0.06544   4.65990
    Z4       -0.00496   0.00003   0.00000   0.00013   0.00013  -0.00484
    X5        0.58375   0.00135   0.00000   0.00101   0.00155   0.58530
    Y5       -3.37202   0.00756   0.00000   0.05333   0.05178  -3.32025
    Z5        2.90352  -0.00343   0.00000  -0.03329  -0.03329   2.87024
    X6        1.56668  -0.00243   0.00000  -0.00987  -0.00879   1.55789
    Y6        1.97344  -0.00197   0.00000  -0.00853  -0.01018   1.96327
    Z6        4.12582  -0.01405   0.00000  -0.08042  -0.08042   4.04539
    X7        1.55945  -0.00238   0.00000  -0.00967  -0.00860   1.55085
    Y7        1.96247  -0.00190   0.00000  -0.00811  -0.00975   1.95272
    Z7       -4.13184   0.01400   0.00000   0.08019   0.08019  -4.05166
    X8       -3.59972   0.00843   0.00000   0.05295   0.05388  -3.54584
    Y8        0.57446   0.00272   0.00000   0.00732   0.00618   0.58065
    Z8       -2.89350   0.00366   0.00000   0.03201   0.03201  -2.86149
    X9        3.94493  -0.01179   0.00000  -0.07075  -0.06940   3.87552
    Y9        4.69067  -0.01195   0.00000  -0.07296  -0.07484   4.61583
    Z9       -0.00883   0.00003   0.00000   0.00013   0.00013  -0.00870
         Item               Value     Threshold  Converged?
 Maximum Force            0.014053     0.000450     NO 
 RMS     Force            0.007332     0.000300     NO 
 Maximum Displacement     0.080424     0.001800     NO 
 RMS     Displacement     0.044569     0.001200     NO 
 Predicted change in Energy=-4.599893D-03
 Lowest energy point so far.  Saving SCF results.
 GradGradGradGradGradGradGradGradGradGradGradGradGradGradGradGradGradGrad

 Leave Link  103 at Tue Mar  6 12:14:04 2018, MaxMem=   536870912 cpu:         0.1
 (Enter /share/apps//mg09/l202.exe)
                          Input orientation:                          
 ---------------------------------------------------------------------
 Center     Atomic      Atomic             Coordinates (Angstroms)
 Number     Number       Type             X           Y           Z
 ---------------------------------------------------------------------
      1         83           0        0.306721   -1.760851   -1.515176
      2         83           0       -1.873504    0.310699    1.516714
      3         50           0        2.597795   -0.476358   -0.001842
      4         32           0       -0.730565    2.465914   -0.002560
      5         83           0        0.309727   -1.756999    1.518864
      6         32           0        0.824400    1.038916    2.140729
      7         32           0        0.820674    1.033333   -2.144044
      8         83           0       -1.876377    0.307266   -1.514237
      9         50           0        2.050839    2.442590   -0.004604
 ---------------------------------------------------------------------
                    Distance matrix (angstroms):
                    1          2          3          4          5
     1  Bi   0.000000
     2  Bi   4.270486   0.000000
     3  Sn   3.031356   4.787273   0.000000
     4  Ge   4.607549   2.873927   4.442403   0.000000
     5  Bi   3.034044   3.006972   3.031145   4.607595   0.000000
     6  Ge   4.633824   2.863281   3.167270   3.007977   2.910111
     7  Ge   2.909826   4.602384   3.166442   3.007421   4.632916
     8  Bi   3.007162   3.030954   4.787444   2.873642   4.270824
     9  Sn   4.795069   4.718032   2.969751   2.781502   4.794681
                    6          7          8          9
     6  Ge   0.000000
     7  Ge   4.284779   0.000000
     8  Bi   4.603073   2.863200   0.000000
     9  Sn   2.841991   2.841920   4.718222   0.000000
 Stoichiometry    Bi4Ge3Sn2
 Framework group  C1[X(Bi4Ge3Sn2)]
 Deg. of freedom    21
 Full point group                 C1      NOp   1
 RotChk:  IX=0 Diff= 9.18D-03
 Largest Abelian subgroup         C1      NOp   1
 Largest concise Abelian subgroup C1      NOp   1
                         Standard orientation:                         
 ---------------------------------------------------------------------
 Center     Atomic      Atomic             Coordinates (Angstroms)
 Number     Number       Type             X           Y           Z
 ---------------------------------------------------------------------
      1         83           0        0.315446   -1.764030   -1.515337
      2         83           0       -1.878862    0.292942    1.516319
      3         50           0        2.597794   -0.464905   -0.001310
      4         32           0       -0.749575    2.455722   -0.002413
      5         83           0        0.317731   -1.760556    1.518704
      6         32           0        0.814119    1.038557    2.141050
      7         32           0        0.811412    1.033511   -2.143725
      8         83           0       -1.881018    0.289887   -1.514633
      9         50           0        2.031922    2.450435   -0.003820
 ---------------------------------------------------------------------
 Rotational constants (GHZ):      0.0959563      0.0911732      0.0900999
 Leave Link  202 at Tue Mar  6 12:14:05 2018, MaxMem=   536870912 cpu:         0.0
 (Enter /share/apps//mg09/l301.exe)
 Standard basis: def2TZVP (5D, 7F)
 Ernie: Thresh=  0.10000D-02 Tol=  0.10000D-05 Strict=F.
 There are   519 symmetry adapted cartesian basis functions of A   symmetry.
 There are   444 symmetry adapted basis functions of A   symmetry.
   444 basis functions,   963 primitive gaussians,   519 cartesian basis functions
   116 alpha electrons      116 beta electrons
       nuclear repulsion energy      3621.1058766476 Hartrees.
 IExCor= 1009 DFT=T Ex+Corr=PBE1PBE ExCW=0 ScaHFX=  0.250000
 ScaDFX=  0.750000  0.750000  1.000000  1.000000 ScalE2=  1.000000  1.000000
 IRadAn=      0 IRanWt=     -1 IRanGd=            0 ICorTp=0 IEmpDi=  4
 NAtoms=    9 NActive=    9 NUniq=    9 SFac= 1.00D+00 NAtFMM=   60 NAOKFM=F Big=F
 Integral buffers will be    131072 words long.
 Raffenetti 2 integral format.
 Two-electron integral symmetry is turned on.
 Leave Link  301 at Tue Mar  6 12:14:05 2018, MaxMem=   536870912 cpu:         0.2
 (Enter /share/apps//mg09/l302.exe)
 NPDir=0 NMtPBC=     1 NCelOv=     1 NCel=       1 NClECP=     1 NCelD=      1
         NCelK=      1 NCelE2=     1 NClLst=     1 CellRange=     0.0.
 One-electron integrals computed using PRISM.
   1 Symmetry operations used in ECPInt.
 ECPInt:  NShTT=   10440 NPrTT=   41973 LenC2=    9709 LenP2D=   27681.
 LDataN:  DoStor=T MaxTD1= 8 Len=  415
 NBasis=   444 RedAO= T EigKep=  8.73D-04  NBF=   444
 NBsUse=   444 1.00D-06 EigRej= -1.00D+00 NBFU=   444
 Precomputing XC quadrature grid using
 IXCGrd= 4 IRadAn=           0 IRanWt=          -1 IRanGd=           0 AccXCQ= 0.00D+00.
 Defaulting to unpruned grid for atomic number  83.
 Defaulting to unpruned grid for atomic number  83.
 Defaulting to unpruned grid for atomic number  83.
 Generated NRdTot=       0 NPtTot=           0 NUsed=           0 NTot=          32
 NSgBfM=   498   498   498   498   498 MxSgAt=     9 MxSgA2=     9.
 Leave Link  302 at Tue Mar  6 12:14:11 2018, MaxMem=   536870912 cpu:        25.2
 (Enter /share/apps//mg09/l303.exe)
 DipDrv:  MaxL=1.
 Leave Link  303 at Tue Mar  6 12:14:11 2018, MaxMem=   536870912 cpu:         0.2
 (Enter /share/apps//mg09/l401.exe)
 Initial guess from the checkpoint file:  "Isomer_17.chk"
 B after Tr=     0.000000    0.000000    0.000000
         Rot=    0.999994   -0.000062    0.000116   -0.003327 Ang=  -0.38 deg.
 Guess basis will be translated and rotated to current coordinates.
 JPrj=2 DoOrth=T DoCkMO=T.
 Generating alternative initial guess.
 ExpMin= 4.62D-02 ExpMax= 4.66D+05 ExpMxC= 4.50D+03 IAcc=2 IRadAn=         4 AccDes= 0.00D+00
 Harris functional with IExCor= 1009 and IRadAn=       4 diagonalized for initial guess.
 HarFok:  IExCor= 1009 AccDes= 0.00D+00 IRadAn=         4 IDoV= 1 UseB2=F ITyADJ=14
 ICtDFT=  3500011 ScaDFX=  1.000000  1.000000  1.000000  1.000000
 Defaulting to unpruned grid for atomic number  83.
 Defaulting to unpruned grid for atomic number  83.
 Defaulting to unpruned grid for atomic number  83.
 Defaulting to unpruned grid for atomic number  83.
 FoFCou: FMM=F IPFlag=           0 FMFlag=      100000 FMFlg1=           0
         NFxFlg=           0 DoJE=T BraDBF=F KetDBF=T FulRan=T
         wScrn=  0.000000 ICntrl=     500 IOpCl=  0 I1Cent=   200000004 NGrid=           0
         NMat0=    1 NMatS0=      1 NMatT0=    0 NMatD0=    1 NMtDS0=    0 NMtDT0=    0
 Petite list used in FoFCou.
 Harris En= -7518.63046355295    
 Leave Link  401 at Tue Mar  6 12:14:14 2018, MaxMem=   536870912 cpu:        11.3
 (Enter /share/apps//mg09/l502.exe)
 Closed shell SCF:
 Using DIIS extrapolation, IDIIS=  1040.
 Integral symmetry usage will be decided dynamically.
 IVT=     1410107 IEndB=     1410107 NGot=   536870912 MDV=   536322046
 LenX=   536322046 LenY=   536052166
 Requested convergence on RMS density matrix=1.00D-08 within 768 cycles.
 Requested convergence on MAX density matrix=1.00D-06.
 Requested convergence on             energy=1.00D-06.
 No special actions if energy rises.
 Fock matrices will be formed incrementally for  20 cycles.

 Cycle   1  Pass 1  IDiag  1:
 FoFJK:  IHMeth= 1 ICntrl=       0 DoSepK=F KAlg= 0 I1Cent=   0 FoldK=F
 IRaf= 880000000 NMat=   1 IRICut=       1 DoRegI=T DoRafI=F ISym2E= 0.
 FoFCou: FMM=F IPFlag=           0 FMFlag=      100000 FMFlg1=           0
         NFxFlg=           0 DoJE=F BraDBF=F KetDBF=F FulRan=T
         wScrn=  0.000000 ICntrl=       0 IOpCl=  0 I1Cent=           0 NGrid=           0
         NMat0=    1 NMatS0=      1 NMatT0=    0 NMatD0=    1 NMtDS0=    0 NMtDT0=    0
 Symmetry not used in FoFCou.
 Defaulting to unpruned grid for atomic number  83.
 Defaulting to unpruned grid for atomic number  83.
 Defaulting to unpruned grid for atomic number  83.
 Defaulting to unpruned grid for atomic number  83.
 E= -7517.82155652655    
 DIIS: error= 5.90D-03 at cycle   1 NSaved=   1.
 NSaved= 1 IEnMin= 1 EnMin= -7517.82155652655     IErMin= 1 ErrMin= 5.90D-03
 ErrMax= 5.90D-03  0.00D+00 EMaxC= 1.00D-01 BMatC= 8.75D-03 BMatP= 8.75D-03
 IDIUse=3 WtCom= 9.41D-01 WtEn= 5.90D-02
 Coeff-Com:  0.100D+01
 Coeff-En:   0.100D+01
 Coeff:      0.100D+01
 Gap=     6.731 Goal=   None    Shift=    0.000
 GapD=    6.731 DampG=2.000 DampE=1.000 DampFc=2.0000 IDamp=-1.
 RMSDP=1.99D-04 MaxDP=6.03D-03              OVMax= 1.97D-02

 Cycle   2  Pass 1  IDiag  1:
 RMSU=  1.98D-04    CP:  1.00D+00
 E= -7517.82147019996     Delta-E=        0.000086326590 Rises=F Damp=F
 DIIS: error= 1.61D-03 at cycle   2 NSaved=   2.
 NSaved= 2 IEnMin= 1 EnMin= -7517.82155652655     IErMin= 2 ErrMin= 1.61D-03
 ErrMax= 1.61D-03  0.00D+00 EMaxC= 1.00D-01 BMatC= 1.76D-03 BMatP= 8.75D-03
 IDIUse=3 WtCom= 9.84D-01 WtEn= 1.61D-02
 Coeff-Com:  0.207D+00 0.793D+00
 Coeff-En:   0.521D+00 0.479D+00
 Coeff:      0.212D+00 0.788D+00
 Gap=     0.129 Goal=   None    Shift=    0.000
 RMSDP=2.38D-04 MaxDP=1.05D-02 DE= 8.63D-05 OVMax= 2.01D-02

 Cycle   3  Pass 1  IDiag  1:
 RMSU=  2.18D-04    CP:  9.99D-01  5.30D-01
 E= -7517.81871343134     Delta-E=        0.002756768623 Rises=F Damp=F
 DIIS: error= 2.41D-03 at cycle   3 NSaved=   3.
 NSaved= 3 IEnMin= 1 EnMin= -7517.82155652655     IErMin= 2 ErrMin= 1.61D-03
 ErrMax= 2.41D-03  0.00D+00 EMaxC= 1.00D-01 BMatC= 4.54D-03 BMatP= 1.76D-03
 IDIUse=3 WtCom= 1.69D-01 WtEn= 8.31D-01
 Coeff-Com:  0.112D-01 0.613D+00 0.375D+00
 Coeff-En:   0.000D+00 0.685D+00 0.315D+00
 Coeff:      0.189D-02 0.673D+00 0.325D+00
 Gap=     0.132 Goal=   None    Shift=    0.000
 RMSDP=1.40D-04 MaxDP=5.66D-03 DE= 2.76D-03 OVMax= 1.54D-02

 Cycle   4  Pass 1  IDiag  1:
 RMSU=  5.74D-05    CP:  9.99D-01  7.76D-01  4.58D-01
 E= -7517.82265084026     Delta-E=       -0.003937408923 Rises=F Damp=F
 DIIS: error= 6.70D-04 at cycle   4 NSaved=   4.
 NSaved= 4 IEnMin= 4 EnMin= -7517.82265084026     IErMin= 4 ErrMin= 6.70D-04
 ErrMax= 6.70D-04  0.00D+00 EMaxC= 1.00D-01 BMatC= 3.46D-04 BMatP= 1.76D-03
 IDIUse=3 WtCom= 9.93D-01 WtEn= 6.70D-03
 Coeff-Com:  0.228D-03 0.449D+00 0.227D+00 0.324D+00
 Coeff-En:   0.000D+00 0.143D+00 0.000D+00 0.857D+00
 Coeff:      0.226D-03 0.447D+00 0.225D+00 0.327D+00
 Gap=     0.132 Goal=   None    Shift=    0.000
 RMSDP=4.78D-05 MaxDP=1.89D-03 DE=-3.94D-03 OVMax= 5.29D-03

 Cycle   5  Pass 1  IDiag  1:
 RMSU=  1.52D-05    CP:  9.99D-01  8.43D-01  4.26D-01  2.64D-01
 E= -7517.82294358272     Delta-E=       -0.000292742456 Rises=F Damp=F
 DIIS: error= 1.19D-04 at cycle   5 NSaved=   5.
 NSaved= 5 IEnMin= 5 EnMin= -7517.82294358272     IErMin= 5 ErrMin= 1.19D-04
 ErrMax= 1.19D-04  0.00D+00 EMaxC= 1.00D-01 BMatC= 1.58D-05 BMatP= 3.46D-04
 IDIUse=3 WtCom= 9.99D-01 WtEn= 1.19D-03
 Coeff-Com: -0.990D-03 0.230D+00 0.107D+00 0.224D+00 0.440D+00
 Coeff-En:   0.000D+00 0.000D+00 0.000D+00 0.173D-01 0.983D+00
 Coeff:     -0.989D-03 0.229D+00 0.107D+00 0.224D+00 0.441D+00
 Gap=     0.132 Goal=   None    Shift=    0.000
 RMSDP=1.08D-05 MaxDP=5.61D-04 DE=-2.93D-04 OVMax= 1.21D-03

 Cycle   6  Pass 1  IDiag  1:
 RMSU=  3.86D-06    CP:  9.99D-01  8.53D-01  4.14D-01  3.92D-01  6.24D-01
 E= -7517.82295990568     Delta-E=       -0.000016322958 Rises=F Damp=F
 DIIS: error= 1.83D-05 at cycle   6 NSaved=   6.
 NSaved= 6 IEnMin= 6 EnMin= -7517.82295990568     IErMin= 6 ErrMin= 1.83D-05
 ErrMax= 1.83D-05  0.00D+00 EMaxC= 1.00D-01 BMatC= 3.21D-07 BMatP= 1.58D-05
 IDIUse=1 WtCom= 1.00D+00 WtEn= 0.00D+00
 Coeff-Com: -0.385D-03 0.579D-01 0.282D-01 0.628D-01 0.176D+00 0.675D+00
 Coeff:     -0.385D-03 0.579D-01 0.282D-01 0.628D-01 0.176D+00 0.675D+00
 Gap=     0.132 Goal=   None    Shift=    0.000
 RMSDP=2.37D-06 MaxDP=2.17D-04 DE=-1.63D-05 OVMax= 3.54D-04

 Cycle   7  Pass 1  IDiag  1:
 RMSU=  1.58D-06    CP:  9.99D-01  8.55D-01  4.19D-01  3.80D-01  6.83D-01
                    CP:  9.63D-01
 E= -7517.82296020165     Delta-E=       -0.000000295979 Rises=F Damp=F
 DIIS: error= 7.06D-06 at cycle   7 NSaved=   7.
 NSaved= 7 IEnMin= 7 EnMin= -7517.82296020165     IErMin= 7 ErrMin= 7.06D-06
 ErrMax= 7.06D-06  0.00D+00 EMaxC= 1.00D-01 BMatC= 7.03D-08 BMatP= 3.21D-07
 IDIUse=1 WtCom= 1.00D+00 WtEn= 0.00D+00
 Coeff-Com: -0.325D-04-0.109D-01-0.417D-02-0.429D-02 0.131D-01 0.353D+00
 Coeff-Com:  0.653D+00
 Coeff:     -0.325D-04-0.109D-01-0.417D-02-0.429D-02 0.131D-01 0.353D+00
 Coeff:      0.653D+00
 Gap=     0.132 Goal=   None    Shift=    0.000
 RMSDP=1.10D-06 MaxDP=7.35D-05 DE=-2.96D-07 OVMax= 9.90D-05

 Cycle   8  Pass 1  IDiag  1:
 RMSU=  5.55D-07    CP:  9.99D-01  8.56D-01  4.20D-01  3.89D-01  6.91D-01
                    CP:  1.12D+00  7.15D-01
 E= -7517.82296026534     Delta-E=       -0.000000063683 Rises=F Damp=F
 DIIS: error= 4.23D-06 at cycle   8 NSaved=   8.
 NSaved= 8 IEnMin= 8 EnMin= -7517.82296026534     IErMin= 8 ErrMin= 4.23D-06
 ErrMax= 4.23D-06  0.00D+00 EMaxC= 1.00D-01 BMatC= 1.40D-08 BMatP= 7.03D-08
 IDIUse=1 WtCom= 1.00D+00 WtEn= 0.00D+00
 Coeff-Com:  0.150D-04-0.121D-01-0.510D-02-0.813D-02-0.712D-02 0.159D+00
 Coeff-Com:  0.427D+00 0.446D+00
 Coeff:      0.150D-04-0.121D-01-0.510D-02-0.813D-02-0.712D-02 0.159D+00
 Coeff:      0.427D+00 0.446D+00
 Gap=     0.132 Goal=   None    Shift=    0.000
 RMSDP=4.93D-07 MaxDP=2.49D-05 DE=-6.37D-08 OVMax= 6.39D-05

 Cycle   9  Pass 1  IDiag  1:
 RMSU=  3.17D-07    CP:  9.99D-01  8.56D-01  4.20D-01  3.89D-01  6.98D-01
                    CP:  1.12D+00  8.02D-01  4.23D-01
 E= -7517.82296027687     Delta-E=       -0.000000011536 Rises=F Damp=F
 DIIS: error= 3.37D-06 at cycle   9 NSaved=   9.
 NSaved= 9 IEnMin= 9 EnMin= -7517.82296027687     IErMin= 9 ErrMin= 3.37D-06
 ErrMax= 3.37D-06  0.00D+00 EMaxC= 1.00D-01 BMatC= 5.98D-09 BMatP= 1.40D-08
 IDIUse=1 WtCom= 1.00D+00 WtEn= 0.00D+00
 Coeff-Com:  0.179D-04-0.853D-02-0.362D-02-0.615D-02-0.823D-02 0.778D-01
 Coeff-Com:  0.259D+00 0.373D+00 0.317D+00
 Coeff:      0.179D-04-0.853D-02-0.362D-02-0.615D-02-0.823D-02 0.778D-01
 Coeff:      0.259D+00 0.373D+00 0.317D+00
 Gap=     0.132 Goal=   None    Shift=    0.000
 RMSDP=2.19D-07 MaxDP=8.19D-06 DE=-1.15D-08 OVMax= 2.43D-05

 Cycle  10  Pass 1  IDiag  1:
 RMSU=  9.67D-08    CP:  9.99D-01  8.56D-01  4.21D-01  3.89D-01  7.01D-01
                    CP:  1.12D+00  8.05D-01  6.16D-01  5.04D-01
 E= -7517.82296028448     Delta-E=       -0.000000007607 Rises=F Damp=F
 DIIS: error= 2.79D-07 at cycle  10 NSaved=  10.
 NSaved=10 IEnMin=10 EnMin= -7517.82296028448     IErMin=10 ErrMin= 2.79D-07
 ErrMax= 2.79D-07  0.00D+00 EMaxC= 1.00D-01 BMatC= 1.39D-10 BMatP= 5.98D-09
 IDIUse=1 WtCom= 1.00D+00 WtEn= 0.00D+00
 Coeff-Com:  0.457D-05-0.138D-02-0.575D-03-0.104D-02-0.265D-02 0.394D-02
 Coeff-Com:  0.304D-01 0.949D-01 0.142D+00 0.734D+00
 Coeff:      0.457D-05-0.138D-02-0.575D-03-0.104D-02-0.265D-02 0.394D-02
 Coeff:      0.304D-01 0.949D-01 0.142D+00 0.734D+00
 Gap=     0.132 Goal=   None    Shift=    0.000
 RMSDP=5.21D-08 MaxDP=2.65D-06 DE=-7.61D-09 OVMax= 8.94D-06

 Cycle  11  Pass 1  IDiag  1:
 RMSU=  3.63D-08    CP:  9.99D-01  8.56D-01  4.21D-01  3.89D-01  7.02D-01
                    CP:  1.13D+00  8.12D-01  6.32D-01  5.71D-01  9.56D-01
 E= -7517.82296028488     Delta-E=       -0.000000000400 Rises=F Damp=F
 DIIS: error= 1.87D-07 at cycle  11 NSaved=  11.
 NSaved=11 IEnMin=11 EnMin= -7517.82296028488     IErMin=11 ErrMin= 1.87D-07
 ErrMax= 1.87D-07  0.00D+00 EMaxC= 1.00D-01 BMatC= 5.38D-11 BMatP= 1.39D-10
 IDIUse=1 WtCom= 1.00D+00 WtEn= 0.00D+00
 Coeff-Com: -0.249D-07 0.461D-03 0.205D-03 0.312D-03-0.518D-03-0.924D-02
 Coeff-Com: -0.224D-01 0.170D-02 0.424D-01 0.488D+00 0.499D+00
 Coeff:     -0.249D-07 0.461D-03 0.205D-03 0.312D-03-0.518D-03-0.924D-02
 Coeff:     -0.224D-01 0.170D-02 0.424D-01 0.488D+00 0.499D+00
 Gap=     0.132 Goal=   None    Shift=    0.000
 RMSDP=2.40D-08 MaxDP=2.26D-06 DE=-4.00D-10 OVMax= 2.64D-06

 Cycle  12  Pass 1  IDiag  1:
 RMSU=  1.18D-08    CP:  9.99D-01  8.56D-01  4.21D-01  3.89D-01  7.02D-01
                    CP:  1.13D+00  8.11D-01  6.43D-01  5.88D-01  1.06D+00
                    CP:  7.12D-01
 E= -7517.82296028457     Delta-E=        0.000000000313 Rises=F Damp=F
 DIIS: error= 3.57D-08 at cycle  12 NSaved=  12.
 NSaved=12 IEnMin=11 EnMin= -7517.82296028488     IErMin=12 ErrMin= 3.57D-08
 ErrMax= 3.57D-08  0.00D+00 EMaxC= 1.00D-01 BMatC= 1.31D-12 BMatP= 5.38D-11
 IDIUse=1 WtCom= 1.00D+00 WtEn= 0.00D+00
 Coeff-Com: -0.383D-06 0.283D-03 0.124D-03 0.197D-03 0.267D-04-0.355D-02
 Coeff-Com: -0.108D-01-0.941D-02 0.476D-02 0.124D+00 0.188D+00 0.706D+00
 Coeff:     -0.383D-06 0.283D-03 0.124D-03 0.197D-03 0.267D-04-0.355D-02
 Coeff:     -0.108D-01-0.941D-02 0.476D-02 0.124D+00 0.188D+00 0.706D+00
 Gap=     0.132 Goal=   None    Shift=    0.000
 RMSDP=6.14D-09 MaxDP=5.22D-07 DE= 3.13D-10 OVMax= 1.18D-06

 SCF Done:  E(RPBE1PBE) =  -7517.82296028     A.U. after   12 cycles
            NFock= 12  Conv=0.61D-08     -V/T= 2.1284
 KE= 6.662132053284D+03 PE=-2.483350656685D+04 EE= 7.032445676633D+03
 Leave Link  502 at Tue Mar  6 12:23:03 2018, MaxMem=   536870912 cpu:      2111.8
 (Enter /share/apps//mg09/l701.exe)
 Compute integral first derivatives.
 ... and contract with generalized density number  0.
   1 Symmetry operations used in ECPInt.
 ECPInt:  NShTT=   10440 NPrTT=   41973 LenC2=    9709 LenP2D=   27681.
 LDataN:  DoStor=T MaxTD1= 9 Len=  602
 Leave Link  701 at Tue Mar  6 12:23:21 2018, MaxMem=   536870912 cpu:        68.8
 (Enter /share/apps//mg09/l702.exe)
 L702 exits ... SP integral derivatives will be done elsewhere.
 Leave Link  702 at Tue Mar  6 12:23:21 2018, MaxMem=   536870912 cpu:         0.1
 (Enter /share/apps//mg09/l703.exe)
 Compute integral first derivatives, UseDBF=F ICtDFT=           0.
 Integral derivatives from FoFJK, PRISM(SPDF).
 Calling FoFJK, ICntrl=      2127 FMM=F ISym2X=0 I1Cent= 0 IOpClX= 0 NMat=1 NMatS=1 NMatT=0.
 FoFJK:  IHMeth= 1 ICntrl=    2127 DoSepK=F KAlg= 0 I1Cent=   0 FoldK=F
 IRaf=         0 NMat=   1 IRICut=       1 DoRegI=T DoRafI=F ISym2E= 0.
 FoFCou: FMM=F IPFlag=           0 FMFlag=      100000 FMFlg1=         800
         NFxFlg=           0 DoJE=F BraDBF=F KetDBF=F FulRan=T
         wScrn=  0.000000 ICntrl=    2127 IOpCl=  0 I1Cent=           0 NGrid=           0
         NMat0=    1 NMatS0=      1 NMatT0=    0 NMatD0=    1 NMtDS0=    0 NMtDT0=    0
 Symmetry not used in FoFCou.
 Defaulting to unpruned grid for atomic number  83.
 Defaulting to unpruned grid for atomic number  83.
 Defaulting to unpruned grid for atomic number  83.
 Defaulting to unpruned grid for atomic number  83.
 Leave Link  703 at Tue Mar  6 12:26:37 2018, MaxMem=   536870912 cpu:       785.9
 (Enter /share/apps//mg09/l716.exe)
 Dipole        =-4.32785943D-01-6.81848274D-01 1.10603180D-03
 ***** Axes restored to original set *****
 -------------------------------------------------------------------
 Center     Atomic                   Forces (Hartrees/Bohr)
 Number     Number              X              Y              Z
 -------------------------------------------------------------------
      1       83           0.001639226    0.001637830   -0.000801625
      2       83           0.002114943    0.002672172    0.000555574
      3       50          -0.005589727    0.004287487    0.000000273
      4       32           0.005327778   -0.006999588    0.000021164
      5       83           0.001627762    0.001629847    0.000820687
      6       32          -0.001258502   -0.000857881   -0.008209789
      7       32          -0.001230628   -0.000803553    0.008157734
      8       83           0.002122516    0.002647633   -0.000555053
      9       50          -0.004753368   -0.004213946    0.000011035
 -------------------------------------------------------------------
 Cartesian Forces:  Max     0.008209789 RMS     0.003556557
 Leave Link  716 at Tue Mar  6 12:26:37 2018, MaxMem=   536870912 cpu:         0.1
 (Enter /share/apps//mg09/l103.exe)

 GradGradGradGradGradGradGradGradGradGradGradGradGradGradGradGradGradGrad
 Berny optimization.
 Search for a local minimum.
 Step number   2 out of a maximum of  100
 All quantities printed in internal units (Hartrees-Bohrs-Radians)
 Update second derivatives using D2CorN and points    1    2
 DE= -6.28D-03 DEPred=-4.60D-03 R= 1.36D+00
 TightC=F SS=  1.41D+00  RLast= 2.32D-01 DXNew= 5.0454D-01 6.9476D-01
 Trust test= 1.36D+00 RLast= 2.32D-01 DXMaxT set to 5.05D-01
 ITU=  1  0
     Eigenvalues ---    0.07870   0.09308   0.11640   0.12062   0.12985
     Eigenvalues ---    0.13489   0.14286   0.14362   0.16654   0.16742
     Eigenvalues ---    0.18226   0.21873   0.21886   0.22740   0.25512
     Eigenvalues ---    0.26325   0.27631   0.27768   0.28543   0.29762
     Eigenvalues ---    0.33019
 RFO step:  Lambda=-6.82601059D-04 EMin= 7.86971478D-02
 Quartic linear search produced a step of  0.63764.
 TrRot=  0.000139 -0.000254 -0.000002 -0.000010  0.000000 -0.000010
 Variable       Old X    -DE/DX   Delta X   Delta X   Delta X     New X
                                 (Linear)    (Quad)   (Total)
    X1        0.57962   0.00164   0.00120   0.01050   0.01177   0.59139
    Y1       -3.32753   0.00164   0.03310  -0.01193   0.02091  -3.30662
    Z1       -2.86327  -0.00080   0.02124  -0.01954   0.00170  -2.86157
    X2       -3.54041   0.00211   0.03428  -0.01050   0.02393  -3.51648
    Y2        0.58714   0.00267   0.00403   0.01462   0.01847   0.60560
    Z2        2.86617   0.00056  -0.02041   0.01805  -0.00236   2.86381
    X3        4.90912  -0.00559  -0.04789  -0.00379  -0.05156   4.85756
    Y3       -0.90019   0.00429   0.02807   0.00820   0.03592  -0.86427
    Z3       -0.00348   0.00000  -0.00002   0.00000  -0.00003  -0.00351
    X4       -1.38057   0.00533   0.03241   0.00854   0.04119  -1.33938
    Y4        4.65990  -0.00700  -0.04173  -0.01177  -0.05373   4.60617
    Z4       -0.00484   0.00002   0.00008   0.00007   0.00015  -0.00469
    X5        0.58530   0.00163   0.00099   0.01043   0.01149   0.59679
    Y5       -3.32025   0.00163   0.03301  -0.01192   0.02083  -3.29942
    Z5        2.87024   0.00082  -0.02123   0.01965  -0.00157   2.86866
    X6        1.55789  -0.00126  -0.00561  -0.00092  -0.00635   1.55154
    Y6        1.96327  -0.00086  -0.00649  -0.00026  -0.00703   1.95624
    Z6        4.04539  -0.00821  -0.05128  -0.01405  -0.06533   3.98006
    X7        1.55085  -0.00123  -0.00548  -0.00089  -0.00619   1.54466
    Y7        1.95272  -0.00080  -0.00622  -0.00007  -0.00657   1.94614
    Z7       -4.05166   0.00816   0.05113   0.01387   0.06500  -3.98666
    X8       -3.54584   0.00212   0.03436  -0.01045   0.02405  -3.52178
    Y8        0.58065   0.00265   0.00394   0.01447   0.01823   0.59888
    Z8       -2.86149  -0.00056   0.02041  -0.01801   0.00240  -2.85910
    X9        3.87552  -0.00475  -0.04425  -0.00431  -0.04833   3.82719
    Y9        4.61583  -0.00421  -0.04772   0.00103  -0.04702   4.56881
[...]
     X                                           X                                                                                   
     X                                           X                                                                                   
     X                                                                                                                               
     X                                                                                                                               
     X                                                                                                                               
     X                                                                                                                               
     X                                                                                                                               
     X                                                                                                                               
     X                                                                                                                               
     X                                                                                                                               
     X                                                                                                                               
     X                                                                                                                               
     X                                                                                                                               
     X                                                                                                                               
     X                                                                                                                               
 
 ***** Axes restored to original set *****
 -------------------------------------------------------------------
 Center     Atomic                   Forces (Hartrees/Bohr)
 Number     Number              X              Y              Z
 -------------------------------------------------------------------
      1       83          -0.000071997    0.000031020    0.000137950
      2       83          -0.000012004   -0.000098763   -0.000013848
      3       50           0.000065067   -0.000099168    0.000003725
      4       32           0.000128983   -0.000040539    0.000001370
      5       83          -0.000070264    0.000029956   -0.000141482
      6       32          -0.000051465    0.000078775    0.000042783
      7       32          -0.000053344    0.000074738   -0.000042323
      8       83          -0.000011270   -0.000097295    0.000013576
      9       50           0.000076293    0.000121277   -0.000001751
 -------------------------------------------------------------------
 Cartesian Forces:  Max     0.000141482 RMS     0.000073207
 Force constants in Cartesian coordinates: 
                1             2             3             4             5 
      1  0.485181D-01
      2 -0.483719D-02  0.768755D-01
      3  0.112038D-01  0.157073D-01  0.608248D-01
      4 -0.105826D-02 -0.761424D-03  0.227788D-03  0.850325D-01
      5  0.573310D-02 -0.148245D-02 -0.498247D-02 -0.656956D-03  0.466139D-01
      6  0.438648D-02  0.268483D-04 -0.371499D-02 -0.155691D-01 -0.123168D-01
      7 -0.182218D-01 -0.968384D-02 -0.136729D-01 -0.630467D-02  0.298155D-02
      8 -0.110404D-01 -0.103866D-01 -0.938796D-02 -0.537763D-03  0.806097D-03
      9 -0.134151D-01 -0.103567D-01 -0.736055D-02  0.299810D-02 -0.481520D-02
     10 -0.143625D-04  0.587013D-03  0.477317D-04 -0.106406D-01 -0.116104D-01
     11  0.420831D-02 -0.714387D-02  0.331402D-02 -0.900198D-02 -0.175676D-01
     12  0.572701D-02 -0.379829D-02 -0.513517D-04  0.110121D-01  0.141514D-01
     13 -0.839714D-03 -0.115969D-02  0.105289D-02 -0.252877D-01  0.179356D-01
     14 -0.116006D-02 -0.529426D-02  0.137602D-02  0.218822D-01 -0.219836D-01
     15 -0.111540D-02 -0.145456D-02 -0.380853D-01  0.179123D-02  0.154744D-02
     16 -0.263584D-02 -0.247828D-03  0.112674D-02 -0.349569D-01 -0.101469D-01
     17 -0.186377D-02  0.129254D-02 -0.827871D-02 -0.968976D-02 -0.816853D-03
     18 -0.327720D-02  0.225102D-03 -0.492957D-02 -0.248158D-02  0.563564D-03
     19  0.687740D-03 -0.586242D-02  0.121510D-02  0.112821D-02 -0.120129D-02
     20 -0.640854D-02 -0.294058D-01  0.339551D-02 -0.674109D-04 -0.259444D-02
     21 -0.848543D-03  0.193510D-02 -0.413701D-02 -0.367843D-03  0.321808D-02
     22 -0.252947D-01  0.218761D-01 -0.180254D-02 -0.474795D-02 -0.121890D-02
     23  0.179284D-01 -0.219912D-01 -0.152873D-02 -0.121730D-02 -0.505655D-03
     24 -0.170147D-02 -0.132897D-02 -0.130804D-02  0.180729D-02  0.179293D-02
     25 -0.114119D-02  0.893112D-04  0.601438D-03 -0.316465D-02 -0.181570D-02
     26 -0.255984D-02 -0.246387D-02  0.384995D-03  0.503823D-04 -0.246944D-02
     27 -0.959491D-03 -0.955892D-03 -0.123797D-02  0.581968D-03  0.841012D-03
                6             7             8             9            10 
      6  0.622915D-01
      7 -0.363230D-02  0.658651D-01
      8 -0.353009D-03  0.461309D-02  0.619713D-01
      9  0.174771D-03 -0.318806D-04 -0.399311D-04  0.308323D-01
     10  0.106149D-01 -0.372121D-02  0.600380D-02 -0.891031D-05  0.721933D-01
     11  0.148642D-01  0.246546D-03 -0.347805D-02 -0.293895D-05  0.100815D-01
     12 -0.921438D-02 -0.206079D-05 -0.759991D-05 -0.548019D-02 -0.456664D-04
     13  0.169986D-02 -0.181667D-01 -0.109857D-01  0.134576D-01 -0.250214D-04
     14  0.134098D-02 -0.962736D-02 -0.103356D-01  0.103789D-01  0.594048D-03
     15 -0.132202D-02  0.137121D-01  0.941216D-02 -0.745661D-02 -0.491051D-04
     16 -0.363022D-02 -0.581122D-02  0.261770D-02  0.455400D-02 -0.140639D-02
     17 -0.159293D-02  0.237665D-02 -0.111789D-02 -0.662960D-02  0.278522D-02
     18 -0.338273D-02  0.231728D-02 -0.516264D-02 -0.590547D-02 -0.476732D-02
     19  0.906857D-02 -0.582452D-02  0.261780D-02 -0.456234D-02 -0.138808D-02
     20  0.279888D-03  0.238407D-02 -0.109050D-02  0.661522D-02  0.279270D-02
     21 -0.633343D-02 -0.232415D-02  0.514810D-02 -0.592355D-02  0.475549D-02
     22 -0.186179D-02 -0.630415D-02 -0.544519D-03 -0.298490D-02 -0.106795D-01
     23 -0.188175D-02  0.299931D-02  0.819346D-03  0.480847D-02 -0.116630D-01
     24 -0.373542D-01  0.363629D-02  0.352317D-03  0.160014D-03 -0.105844D-01
     25 -0.107641D-02 -0.151081D-02  0.725605D-02 -0.651616D-05 -0.443182D-01
     26 -0.367413D-03  0.370999D-02 -0.371881D-01  0.416974D-04  0.429112D-03
     27 -0.114448D-02 -0.234729D-05  0.385627D-04  0.959313D-03  0.373466D-04
               11            12            13            14            15 
     11  0.659576D-01
     12 -0.449153D-04  0.351257D-01
     13  0.418819D-02 -0.573729D-02  0.484712D-01
     14 -0.714261D-02  0.381518D-02 -0.489413D-02  0.768042D-01
     15 -0.330392D-02 -0.419578D-04 -0.111663D-01 -0.157336D-01  0.609407D-01
     16  0.171330D-02 -0.691586D-02  0.686904D-03 -0.587107D-02 -0.120922D-02
     17 -0.648109D-02  0.367203D-02 -0.641518D-02 -0.294273D-01 -0.332359D-02
     18  0.342914D-03 -0.587912D-02  0.855534D-03 -0.186418D-02 -0.412297D-02
     19  0.173148D-02  0.690616D-02 -0.263194D-02 -0.251362D-03 -0.113007D-02
     20 -0.649196D-02 -0.367704D-02 -0.184173D-02  0.131203D-02  0.826608D-02
     21 -0.345184D-03 -0.589186D-02  0.327719D-02 -0.240212D-03 -0.495263D-02
     22 -0.905615D-02 -0.109876D-01 -0.106661D-02 -0.761949D-03 -0.231179D-03
     23 -0.176406D-01 -0.141110D-01  0.573116D-02 -0.147021D-02  0.496714D-02
     24 -0.148282D-01 -0.910416D-02 -0.440498D-02 -0.314600D-04 -0.371889D-02
     25 -0.411122D-02  0.432195D-04 -0.114031D-02  0.896609D-04 -0.602024D-03
     26 -0.118600D-04  0.000000D+00 -0.255850D-02 -0.246258D-02 -0.377184D-03
     27  0.403488D-05  0.537316D-03  0.965500D-03  0.958285D-03 -0.124032D-02
               16            17            18            19            20 
     16  0.537534D-01
     17  0.187465D-01  0.520078D-01
     18 -0.107168D-03  0.317156D-03  0.562102D-01
     19 -0.300823D-02  0.291528D-02 -0.267171D-02  0.537509D-01
     20  0.291828D-02 -0.236267D-02 -0.211712D-02  0.187381D-01  0.519984D-01
     21  0.265654D-02  0.209955D-02 -0.735395D-02  0.650884D-04 -0.340851D-03
     22  0.111325D-02 -0.668944D-04  0.354973D-03 -0.349413D-01 -0.968016D-02
     23 -0.122929D-02 -0.260306D-02 -0.322537D-02 -0.101382D-01 -0.814815D-03
     24 -0.907940D-02 -0.288608D-03 -0.630967D-02  0.370966D-02  0.160375D-02
     25 -0.773497D-02 -0.878802D-02  0.977719D-02 -0.777270D-02 -0.883530D-02
     26 -0.850063D-02 -0.104915D-01  0.109206D-01 -0.854936D-02 -0.105502D-01
     27  0.126046D-01  0.140247D-01 -0.183267D-01 -0.126005D-01 -0.140254D-01
               21            22            23            24            25 
     21  0.562156D-01
     22  0.255952D-02  0.850845D-01
     23 -0.551922D-03 -0.597099D-03  0.466770D-01
     24 -0.339658D-02  0.155323D-01  0.123577D-01  0.621755D-01
     25 -0.977330D-02 -0.316352D-02 -0.181401D-02  0.108476D-02  0.699463D-01
     26 -0.109227D-01  0.496044D-04 -0.247081D-02  0.370479D-03  0.179292D-01
     27 -0.182266D-01 -0.578738D-03 -0.834598D-03 -0.114395D-02 -0.483652D-04
               26            27 
     26  0.681083D-01
     27 -0.506735D-04  0.398233D-01
 Leave Link  716 at Tue Mar  6 14:21:04 2018, MaxMem=   536870912 cpu:         0.1
 (Enter /share/apps//mg09/l103.exe)

 GradGradGradGradGradGradGradGradGradGradGradGradGradGradGradGradGradGrad
 Berny optimization.
 Search for a local minimum.
 Step number   1 out of a maximum of    2
 All quantities printed in internal units (Hartrees-Bohrs-Radians)
 Second derivative matrix not updated -- analytic derivatives used.
 ITU=  0
     Eigenvalues ---    0.01486   0.02085   0.02412   0.04094   0.04545
     Eigenvalues ---    0.04635   0.05489   0.05704   0.06002   0.06033
     Eigenvalues ---    0.06687   0.06809   0.08092   0.08270   0.09404
     Eigenvalues ---    0.10266   0.11112   0.12097   0.14025   0.14414
     Eigenvalues ---    0.15481
 Angle between quadratic step and forces=  33.07 degrees.
 Linear search not attempted -- first point.
 TrRot= -0.000036  0.000075  0.000001  0.000003  0.000000  0.000003
 Variable       Old X    -DE/DX   Delta X   Delta X   Delta X     New X
                                 (Linear)    (Quad)   (Total)
    X1        0.59303  -0.00007   0.00000  -0.00044  -0.00046   0.59257
    Y1       -3.31831   0.00003   0.00000   0.00026   0.00033  -3.31797
    Z1       -2.87505   0.00014   0.00000   0.00148   0.00149  -2.87356
    X2       -3.52658  -0.00001   0.00000  -0.00063  -0.00067  -3.52724
    Y2        0.61760  -0.00010   0.00000  -0.00190  -0.00185   0.61575
    Z2        2.88535  -0.00001   0.00000  -0.00033  -0.00032   2.88502
    X3        4.83165   0.00007   0.00000   0.00122   0.00119   4.83284
    Y3       -0.84179  -0.00010   0.00000  -0.00144  -0.00134  -0.84313
    Z3       -0.00328   0.00000   0.00000   0.00013   0.00013  -0.00315
    X4       -1.31090   0.00013   0.00000   0.00287   0.00281  -1.30809
    Y4        4.55266  -0.00004   0.00000  -0.00143  -0.00136   4.55130
    Z4       -0.00441   0.00000   0.00000   0.00008   0.00009  -0.00433
    X5        0.59811  -0.00007   0.00000  -0.00045  -0.00046   0.59764
    Y5       -3.31123   0.00003   0.00000   0.00021   0.00029  -3.31094
    Z5        2.88235  -0.00014   0.00000  -0.00157  -0.00157   2.88078
    X6        1.54245  -0.00005   0.00000  -0.00219  -0.00223   1.54022
    Y6        1.94646   0.00008   0.00000   0.00265   0.00273   1.94918
    Z6        3.92178   0.00004   0.00000   0.00014   0.00014   3.92193
    X7        1.53556  -0.00005   0.00000  -0.00221  -0.00226   1.53330
    Y7        1.93696   0.00007   0.00000   0.00255   0.00263   1.93959
    Z7       -3.92905  -0.00004   0.00000  -0.00018  -0.00017  -3.92923
    X8       -3.53166  -0.00001   0.00000  -0.00062  -0.00066  -3.53232
    Y8        0.61048  -0.00010   0.00000  -0.00183  -0.00177   0.60871
    Z8       -2.88046   0.00001   0.00000   0.00032   0.00032  -2.88014
    X9        3.85982   0.00008   0.00000   0.00281   0.00275   3.86257
    Y9        4.61871   0.00012   0.00000   0.00024   0.00034   4.61905
    Z9       -0.00886   0.00000   0.00000  -0.00010  -0.00010  -0.00896
         Item               Value     Threshold  Converged?
 Maximum Force            0.000141     0.000450     YES
 RMS     Force            0.000073     0.000300     YES
 Maximum Displacement     0.002812     0.001800     NO 
 RMS     Displacement     0.001467     0.001200     NO 
 Predicted change in Energy=-1.215294D-06
 GradGradGradGradGradGradGradGradGradGradGradGradGradGradGradGradGradGrad

 Leave Link  103 at Tue Mar  6 14:21:04 2018, MaxMem=   536870912 cpu:         0.1
 (Enter /share/apps//mg09/l9999.exe)
 1\1\GINC-COMPUTE-0-4\Freq\RPBE1PBE\def2TZVP\Bi4Ge3Sn2\RODRIGO\06-Mar-2
 018\0\\#P Geom=AllCheck Guess=TCheck SCRF=Check GenChk RPBE1PBE/def2TZ
 VP Freq\\01Final_coords.xyz_17\\0,1\Bi,0.3138168946,-1.7559729433,-1.5
 214094271\Bi,-1.8661836618,0.3268185282,1.5268599411\Sn,2.5567994856,-
 0.445456267,-0.0017365418\Ge,-0.6936999003,2.4091657514,-0.0023353089\
 Bi,0.3165046293,-1.7522261358,1.5252745885\Ge,0.8162303542,1.030019805
 9,2.0753189764\Ge,0.812585419,1.0249940185,-2.0791647269\Bi,-1.8688745
 449,0.3230506672,-1.5242734288\Sn,2.0425313246,2.4441155747,-0.0046900
 726\\Version=ES64L-G09RevD.01\State=1-A\HF=-7517.8251327\RMSD=2.489e-0
 9\RMSF=7.321e-05\ZeroPoint=0.0058758\Thermal=0.023295\Dipole=-0.458545
 3,-0.6784677,0.0012258\DipoleDeriv=-0.0509347,-0.0154355,-0.0451729,0.
 018108,-0.0320814,0.0358869,-0.0339332,0.0316804,-0.0022001,-0.0100723
 ,-0.0189749,-0.0138028,-0.0214021,-0.005238,0.0304571,-0.0280786,0.038
 6192,0.0145854,0.263973,-0.1274912,-0.000083,-0.1055712,-0.0158638,0.0
 001368,-0.0000915,0.0001525,0.0191168,-0.086225,-0.0379445,0.000068,-0
 .0794903,-0.0220678,0.0000089,0.0001145,-0.0000101,-0.0591026,-0.05079
 81,-0.0153749,0.0452978,0.0181334,-0.0322482,-0.0358466,0.033981,-0.03
 15728,-0.0021599,-0.1091474,-0.0361639,0.0337755,-0.044873,-0.0954562,
 0.0470707,-0.0108667,0.0196796,0.0292606,-0.1091844,-0.0362529,-0.0334
 304,-0.0449018,-0.0956056,-0.0466784,0.0112162,-0.0193268,0.0295032,-0
 .009995,-0.0190094,0.0138926,-0.0213856,-0.0054041,-0.0303723,0.028182
 6,-0.0385308,0.0146764,0.162384,0.3066472,-0.0005448,0.2813827,0.30396
 52,-0.0006631,-0.0005242,-0.0006912,-0.0436798\Polar=390.405216,7.3892
 313,380.9904732,-0.0337508,-0.0287919,362.2872877\PG=C01 [X(Bi4Ge3Sn2)
 ]\NImag=0\\0.04851808,-0.00483719,0.07687555,0.01120375,0.01570732,0.0
 6082480,-0.00105826,-0.00076142,0.00022779,0.08503250,0.00573310,-0.00
 148245,-0.00498247,-0.00065696,0.04661393,0.00438648,0.00002685,-0.003
 71499,-0.01556907,-0.01231677,0.06229149,-0.01822180,-0.00968384,-0.01
 367290,-0.00630467,0.00298155,-0.00363230,0.06586513,-0.01104044,-0.01
 038662,-0.00938796,-0.00053776,0.00080610,-0.00035301,0.00461309,0.061
 97131,-0.01341514,-0.01035666,-0.00736055,0.00299810,-0.00481520,0.000
 17477,-0.00003188,-0.00003993,0.03083228,-0.00001436,0.00058701,0.0000
 4773,-0.01064056,-0.01161045,0.01061488,-0.00372121,0.00600380,-0.0000
 0891,0.07219332,0.00420831,-0.00714387,0.00331402,-0.00900198,-0.01756
 758,0.01486416,0.00024655,-0.00347805,-0.00000294,0.01008153,0.0659576
 2,0.00572701,-0.00379829,-0.00005135,0.01101212,0.01415142,-0.00921438
 ,-0.00000206,-0.00000760,-0.00548019,-0.00004567,-0.00004492,0.0351257
 0,-0.00083971,-0.00115969,0.00105289,-0.02528775,0.01793558,0.00169986
 ,-0.01816675,-0.01098570,0.01345758,-0.00002502,0.00418819,-0.00573729
 ,0.04847119,-0.00116006,-0.00529426,0.00137602,0.02188222,-0.02198362,
 0.00134098,-0.00962736,-0.01033563,0.01037894,0.00059405,-0.00714261,0
 .00381518,-0.00489413,0.07680415,-0.00111540,-0.00145456,-0.03808531,0
 .00179123,0.00154744,-0.00132202,0.01371207,0.00941216,-0.00745661,-0.
 00004911,-0.00330392,-0.00004196,-0.01116629,-0.01573356,0.06094070,-0
 .00263584,-0.00024783,0.00112674,-0.03495687,-0.01014695,-0.00363022,-
 0.00581122,0.00261770,0.00455400,-0.00140639,0.00171330,-0.00691586,0.
 00068690,-0.00587107,-0.00120922,0.05375336,-0.00186377,0.00129254,-0.
 00827871,-0.00968976,-0.00081685,-0.00159293,0.00237665,-0.00111789,-0
 .00662960,0.00278522,-0.00648109,0.00367203,-0.00641518,-0.02942728,-0
 .00332359,0.01874648,0.05200780,-0.00327720,0.00022510,-0.00492957,-0.
 00248158,0.00056356,-0.00338273,0.00231728,-0.00516264,-0.00590547,-0.
 00476732,0.00034291,-0.00587912,0.00085553,-0.00186418,-0.00412297,-0.
 00010717,0.00031716,0.05621017,0.00068774,-0.00586242,0.00121510,0.001
 12821,-0.00120129,0.00906857,-0.00582452,0.00261780,-0.00456234,-0.001
 38808,0.00173148,0.00690616,-0.00263194,-0.00025136,-0.00113007,-0.003
 00823,0.00291528,-0.00267171,0.05375087,-0.00640854,-0.02940580,0.0033
 9551,-0.00006741,-0.00259444,0.00027989,0.00238407,-0.00109050,0.00661
 522,0.00279270,-0.00649196,-0.00367704,-0.00184173,0.00131203,0.008266
 08,0.00291828,-0.00236267,-0.00211712,0.01873810,0.05199837,-0.0008485
 4,0.00193510,-0.00413701,-0.00036784,0.00321808,-0.00633343,-0.0023241
 5,0.00514810,-0.00592355,0.00475549,-0.00034518,-0.00589186,0.00327719
 ,-0.00024021,-0.00495263,0.00265654,0.00209955,-0.00735395,0.00006509,
 -0.00034085,0.05621556,-0.02529466,0.02187607,-0.00180254,-0.00474795,
 -0.00121890,-0.00186179,-0.00630415,-0.00054452,-0.00298490,-0.0106795
 3,-0.00905615,-0.01098763,-0.00106661,-0.00076195,-0.00023118,0.001113
 25,-0.00006689,0.00035497,-0.03494135,-0.00968016,0.00255952,0.0850845
 3,0.01792842,-0.02199122,-0.00152873,-0.00121730,-0.00050565,-0.001881
 75,0.00299931,0.00081935,0.00480847,-0.01166297,-0.01764060,-0.0141109
 8,0.00573116,-0.00147021,0.00496714,-0.00122929,-0.00260306,-0.0032253
 7,-0.01013822,-0.00081481,-0.00055192,-0.00059710,0.04667702,-0.001701
 47,-0.00132897,-0.00130804,0.00180729,0.00179293,-0.03735424,0.0036362
 9,0.00035232,0.00016001,-0.01058444,-0.01482817,-0.00910416,-0.0044049
 8,-0.00003146,-0.00371889,-0.00907940,-0.00028861,-0.00630967,0.003709
 66,0.00160375,-0.00339658,0.01553228,0.01235773,0.06217551,-0.00114119
 ,0.00008931,0.00060144,-0.00316465,-0.00181570,-0.00107641,-0.00151081
 ,0.00725605,-0.00000652,-0.04431817,-0.00411122,0.00004322,-0.00114031
 ,0.00008966,-0.00060202,-0.00773497,-0.00878802,0.00977719,-0.00777270
 ,-0.00883530,-0.00977330,-0.00316352,-0.00181401,0.00108476,0.06994632
 ,-0.00255984,-0.00246387,0.00038499,0.00005038,-0.00246944,-0.00036741
 ,0.00370999,-0.03718806,0.00004170,0.00042911,-0.00001186,0.00000019,-
 0.00255850,-0.00246258,-0.00037718,-0.00850063,-0.01049151,0.01092057,
 -0.00854936,-0.01055020,-0.01092266,0.00004960,-0.00247081,0.00037048,
 0.01792924,0.06810832,-0.00095949,-0.00095589,-0.00123797,0.00058197,0
 .00084101,-0.00114448,-0.00000235,0.00003856,0.00095931,0.00003735,0.0
 0000403,0.00053732,0.00096550,0.00095828,-0.00124032,0.01260459,0.0140
 2470,-0.01832668,-0.01260046,-0.01402543,-0.01822656,-0.00057874,-0.00
 083460,-0.00114395,-0.00004837,-0.00005067,0.03982333\\0.00007200,-0.0
 0003102,-0.00013795,0.00001200,0.00009876,0.00001385,-0.00006507,0.000
 09917,-0.00000373,-0.00012898,0.00004054,-0.00000137,0.00007026,-0.000
 02996,0.00014148,0.00005146,-0.00007878,-0.00004278,0.00005334,-0.0000
 7474,0.00004232,0.00001127,0.00009729,-0.00001358,-0.00007629,-0.00012
 128,0.00000175\\\@



 IN THIS SHORT LIFE

 THAT ONLY LASTS AN HOUR

 HOW MUCH, HOW LITTLE, IS WITHIN OUR POWER....


 EMILY DICKINSON BOLTS OF MELODY NO. 521
 Job cpu time:       0 days  3 hours 45 minutes 25.7 seconds.
 File lengths (MBytes):  RWF=    299 Int=      0 D2E=      0 Chk=     16 Scr=      1
 Normal termination of Gaussian 09 at Tue Mar  6 14:21:06 2018.
