 Entering Gaussian System, Link 0=/share/apps/mg09/g09
 Initial command:
 /share/apps//mg09/l1.exe "/state/partition1/gauss_tmp/Gau-484.inp" -scrdir="/state/partition1/gauss_tmp/"
 Entering Link 1 = /share/apps//mg09/l1.exe PID=       498.
  
 Copyright (c) 1988,1990,1992,1993,1995,1998,2003,2009,2013,
            Gaussian, Inc.  All Rights Reserved.
  
 This is part of the Gaussian(R) 09 program.  It is based on
 the Gaussian(R) 03 system (copyright 2003, Gaussian, Inc.),
 the Gaussian(R) 98 system (copyright 1998, Gaussian, Inc.),
 the Gaussian(R) 94 system (copyright 1995, Gaussian, Inc.),
 the Gaussian 92(TM) system (copyright 1992, Gaussian, Inc.),
 the Gaussian 90(TM) system (copyright 1990, Gaussian, Inc.),
 the Gaussian 88(TM) system (copyright 1988, Gaussian, Inc.),
 the Gaussian 86(TM) system (copyright 1986, Carnegie Mellon
 University), and the Gaussian 82(TM) system (copyright 1983,
 Carnegie Mellon University). Gaussian is a federally registered
 trademark of Gaussian, Inc.
  
 This software contains proprietary and confidential information,
 including trade secrets, belonging to Gaussian, Inc.
  
 This software is provided under written license and may be
 used, copied, transmitted, or stored only in accord with that
 written license.
  
 The following legend is applicable only to US Government
 contracts under FAR:
  
                    RESTRICTED RIGHTS LEGEND
  
 Use, reproduction and disclosure by the US Government is
 subject to restrictions as set forth in subparagraphs (a)
 and (c) of the Commercial Computer Software - Restricted
 Rights clause in FAR 52.227-19.
  
 Gaussian, Inc.
 340 Quinnipiac St., Bldg. 40, Wallingford CT 06492
  
  
 ---------------------------------------------------------------
 Warning -- This program may not be used in any manner that
 competes with the business of Gaussian, Inc. or will provide
 assistance to any competitor of Gaussian, Inc.  The licensee
 of this program is prohibited from giving any competitor of
 Gaussian, Inc. access to this program.  By using this program,
 the user acknowledges that Gaussian, Inc. is engaged in the
 business of creating and licensing software in the field of
 computational chemistry and represents and warrants to the
 licensee that it is not a competitor of Gaussian, Inc. and that
 it will not use this program in any manner prohibited above.
 ---------------------------------------------------------------
  

 Cite this work as:
 Gaussian 09, Revision D.01,
 M. J. Frisch, G. W. Trucks, H. B. Schlegel, G. E. Scuseria, 
 M. A. Robb, J. R. Cheeseman, G. Scalmani, V. Barone, B. Mennucci, 
 G. A. Petersson, H. Nakatsuji, M. Caricato, X. Li, H. P. Hratchian, 
 A. F. Izmaylov, J. Bloino, G. Zheng, J. L. Sonnenberg, M. Hada, 
 M. Ehara, K. Toyota, R. Fukuda, J. Hasegawa, M. Ishida, T. Nakajima, 
 Y. Honda, O. Kitao, H. Nakai, T. Vreven, J. A. Montgomery, Jr., 
 J. E. Peralta, F. Ogliaro, M. Bearpark, J. J. Heyd, E. Brothers, 
 K. N. Kudin, V. N. Staroverov, T. Keith, R. Kobayashi, J. Normand, 
 K. Raghavachari, A. Rendell, J. C. Burant, S. S. Iyengar, J. Tomasi, 
 M. Cossi, N. Rega, J. M. Millam, M. Klene, J. E. Knox, J. B. Cross, 
 V. Bakken, C. Adamo, J. Jaramillo, R. Gomperts, R. E. Stratmann, 
 O. Yazyev, A. J. Austin, R. Cammi, C. Pomelli, J. W. Ochterski, 
 R. L. Martin, K. Morokuma, V. G. Zakrzewski, G. A. Voth, 
 P. Salvador, J. J. Dannenberg, S. Dapprich, A. D. Daniels, 
 O. Farkas, J. B. Foresman, J. V. Ortiz, J. Cioslowski, 
 and D. J. Fox, Gaussian, Inc., Wallingford CT, 2013.
 
 ******************************************
 Gaussian 09:  ES64L-G09RevD.01 24-Apr-2013
                 6-Mar-2018 
 ******************************************
 %NProcShared=4
 Will use up to    4 processors via shared memory.
 %LindaWorkers=compute-0-5
 %chk=Isomer_13.chk
 %NProc=4
 Will use up to    4 processors via shared memory.
 %mem=4GB
 SetLPE:  input flags=" -vv -opt "Tsnet.Node.lindarsharg: ssh" "
 SetLPE:    new flags=" -vv -opt "Tsnet.Node.lindarsharg: ssh"  -nodelist 'compute-0-5.local'"
 Will use up to    1 processors via Linda.
 ----------------------------------------------------------------------
 #p PBE1PBE/Def2TZVP scf=(maxcycle=768) opt=(cartesian,maxcycle=512) fr
 eq
 ----------------------------------------------------------------------
 1/6=512,10=7,14=-1,18=10,26=3,38=1/1,3;
 2/12=2,17=6,18=5,29=2,40=1/2;
 3/5=44,7=101,11=2,16=1,25=1,30=1,71=1,74=-13/1,2,3;
 4//1;
 5/5=2,7=768,38=5/2;
 6/7=2,8=2,9=2,10=2,28=1/1;
 7/7=1,29=1/1,2,3,16;
 1/6=512,10=7,14=-1,18=10,26=3/3(2);
 2/29=1/2;
 99/12=1/99;
 2/29=1/2;
 3/5=44,7=101,11=2,16=1,25=1,30=1,71=1,74=-13/1,2,3;
 4/5=5,16=3,69=1/1;
 5/5=2,7=768,38=5/2;
 7/7=1/1,2,3,16;
 1/6=512,14=-1,18=10,26=3/3(-5);
 2/29=1/2;
 6/7=2,8=2,9=2,10=2,19=2,28=1/1;
 99/9=1,12=1/99;
 Leave Link    1 at Tue Mar  6 11:56:29 2018, MaxMem=   536870912 cpu:         0.5
 (Enter /share/apps//mg09/l101.exe)
 ---------------------
 01Final_coords.xyz_13
 ---------------------
 Symbolic Z-matrix:
 Charge =  0 Multiplicity = 1
 83                   -2.02009  -1.02984  -1.25227 
 32                    0.69538  -1.22639  -2.15113 
 83                    1.78741  -1.68944   0.54242 
 32                   -0.55732   1.35916  -2.09322 
 83                    2.14749   0.96513  -0.8731 
 32                    0.24647   2.83616   0.14542 
 83                   -1.95191   1.16932   0.85228 
 50                    0.87775   0.77506   2.23103 
 50                   -1.06228  -1.70436   1.60521 
 
 NAtoms=      9 NQM=        9 NQMF=       0 NMMI=      0 NMMIF=      0
                NMic=       0 NMicF=      0.
                    Isotopes and Nuclear Properties:
 (Nuclear quadrupole moments (NQMom) in fm**2, nuclear magnetic moments (NMagM)
  in nuclear magnetons)

  Atom         1           2           3           4           5           6           7           8           9
 IAtWgt=         209          74         209          74         209          74         209         118         118
 AtmWgt= 208.9804000  73.9211788 208.9804000  73.9211788 208.9804000  73.9211788 208.9804000 117.9018000 117.9018000
 NucSpn=           9           0           9           0           9           0           9           0           0
 AtZEff=   0.0000000   0.0000000   0.0000000   0.0000000   0.0000000   0.0000000   0.0000000   0.0000000   0.0000000
 NQMom=  -51.6000000   0.0000000 -51.6000000   0.0000000 -51.6000000   0.0000000 -51.6000000   0.0000000   0.0000000
 NMagM=    4.1106000   0.0000000   4.1106000   0.0000000   4.1106000   0.0000000   4.1106000   0.0000000   0.0000000
 AtZNuc=  83.0000000  32.0000000  83.0000000  32.0000000  83.0000000  32.0000000  83.0000000  50.0000000  50.0000000
 Leave Link  101 at Tue Mar  6 11:56:42 2018, MaxMem=   536870912 cpu:         0.3
 (Enter /share/apps//mg09/l103.exe)

 GradGradGradGradGradGradGradGradGradGradGradGradGradGradGradGradGradGrad
 Berny optimization.
 Initialization pass.
 No Z-matrix variables, so optimization will use Cartesian coordinates.
 Trust Radius=3.00D-01 FncErr=1.00D-07 GrdErr=1.00D-06
 Number of steps in this run=    100 maximum allowed number of steps=    100.
 GradGradGradGradGradGradGradGradGradGradGradGradGradGradGradGradGradGrad

 Leave Link  103 at Tue Mar  6 11:57:12 2018, MaxMem=   536870912 cpu:         0.1
 (Enter /share/apps//mg09/l202.exe)
 ---------------------------------------------------------------------------------------------------
                            Z-MATRIX (ANGSTROMS AND DEGREES)
   CD    Cent   Atom    N1       Length/X        N2       Alpha/Y        N3        Beta/Z          J
 ---------------------------------------------------------------------------------------------------
      1      1  Bi       0  -2.020088         -1.029840         -1.252269
      2      2  Ge       0   0.695384         -1.226390         -2.151129
      3      3  Bi       0   1.787413         -1.689437          0.542417
      4      4  Ge       0  -0.557317          1.359160         -2.093218
      5      5  Bi       0   2.147493          0.965129         -0.873104
      6      6  Ge       0   0.246469          2.836155          0.145421
      7      7  Bi       0  -1.951908          1.169322          0.852280
      8      8  Sn       0   0.877750          0.775055          2.231028
      9      9  Sn       0  -1.062283         -1.704357          1.605208
 ---------------------------------------------------------------------------------------------------
                         Z-Matrix orientation:                         
 ---------------------------------------------------------------------
 Center     Atomic      Atomic             Coordinates (Angstroms)
 Number     Number       Type             X           Y           Z
 ---------------------------------------------------------------------
      1         83           0       -2.020088   -1.029840   -1.252269
      2         32           0        0.695384   -1.226390   -2.151129
      3         83           0        1.787413   -1.689437    0.542417
      4         32           0       -0.557317    1.359160   -2.093218
      5         83           0        2.147493    0.965129   -0.873104
      6         32           0        0.246469    2.836155    0.145421
      7         83           0       -1.951908    1.169322    0.852280
      8         50           0        0.877750    0.775055    2.231028
      9         50           0       -1.062283   -1.704357    1.605208
 ---------------------------------------------------------------------
                    Distance matrix (angstroms):
                    1          2          3          4          5
     1  Bi   0.000000
     2  Ge   2.867119   0.000000
     3  Bi   4.260637   2.943150   0.000000
     4  Ge   2.924759   2.873618   4.662432   0.000000
     5  Bi   4.635990   2.923136   3.029864   2.993315   0.000000
     6  Ge   4.694330   4.688277   4.797197   2.799838   2.855175
     7  Bi   3.044682   4.665625   4.717101   3.264488   4.452385
     8  Sn   4.877342   4.821031   3.122918   4.593441   3.359168
     9  Sn   3.088291   4.174675   3.041466   4.828921   4.854982
                    6          7          8          9
     6  Ge   0.000000
     7  Bi   2.847954   0.000000
     8  Sn   2.999401   3.172279   0.000000
     9  Sn   4.945711   3.101026   3.209807   0.000000
 Stoichiometry    Bi4Ge3Sn2
 Framework group  C1[X(Bi4Ge3Sn2)]
 Deg. of freedom    21
 Full point group                 C1      NOp   1
 Largest Abelian subgroup         C1      NOp   1
 Largest concise Abelian subgroup C1      NOp   1
                         Standard orientation:                         
 ---------------------------------------------------------------------
 Center     Atomic      Atomic             Coordinates (Angstroms)
 Number     Number       Type             X           Y           Z
 ---------------------------------------------------------------------
      1         83           0        2.020088   -1.029839    1.252269
      2         32           0       -0.695383   -1.226390    2.151129
      3         83           0       -1.787412   -1.689438   -0.542417
      4         32           0        0.557317    1.359160    2.093218
      5         83           0       -2.147493    0.965128    0.873104
      6         32           0       -0.246470    2.836155   -0.145421
      7         83           0        1.951908    1.169323   -0.852280
      8         50           0       -0.877750    0.775055   -2.231028
      9         50           0        1.062284   -1.704356   -1.605208
 ---------------------------------------------------------------------
 Rotational constants (GHZ):      0.1050177      0.0867454      0.0825554
 Leave Link  202 at Tue Mar  6 11:57:17 2018, MaxMem=   536870912 cpu:         0.1
 (Enter /share/apps//mg09/l301.exe)
 Standard basis: def2TZVP (5D, 7F)
 Ernie: Thresh=  0.10000D-02 Tol=  0.10000D-05 Strict=F.
 There are   519 symmetry adapted cartesian basis functions of A   symmetry.
 There are   444 symmetry adapted basis functions of A   symmetry.
   444 basis functions,   963 primitive gaussians,   519 cartesian basis functions
   116 alpha electrons      116 beta electrons
       nuclear repulsion energy      3543.7455227167 Hartrees.
 IExCor= 1009 DFT=T Ex+Corr=PBE1PBE ExCW=0 ScaHFX=  0.250000
 ScaDFX=  0.750000  0.750000  1.000000  1.000000 ScalE2=  1.000000  1.000000
 IRadAn=      0 IRanWt=     -1 IRanGd=            0 ICorTp=0 IEmpDi=  4
 NAtoms=    9 NActive=    9 NUniq=    9 SFac= 1.00D+00 NAtFMM=   60 NAOKFM=F Big=F
 Integral buffers will be    131072 words long.
 Raffenetti 2 integral format.
 Two-electron integral symmetry is turned on.
 Leave Link  301 at Tue Mar  6 11:57:27 2018, MaxMem=   536870912 cpu:         0.3
 (Enter /share/apps//mg09/l302.exe)
 NPDir=0 NMtPBC=     1 NCelOv=     1 NCel=       1 NClECP=     1 NCelD=      1
         NCelK=      1 NCelE2=     1 NClLst=     1 CellRange=     0.0.
 One-electron integrals computed using PRISM.
   1 Symmetry operations used in ECPInt.
 ECPInt:  NShTT=   10440 NPrTT=   41973 LenC2=    9668 LenP2D=   27433.
 LDataN:  DoStor=T MaxTD1= 8 Len=  415
 NBasis=   444 RedAO= T EigKep=  1.59D-03  NBF=   444
 NBsUse=   444 1.00D-06 EigRej= -1.00D+00 NBFU=   444
 Precomputing XC quadrature grid using
 IXCGrd= 4 IRadAn=           0 IRanWt=          -1 IRanGd=           0 AccXCQ= 0.00D+00.
 Defaulting to unpruned grid for atomic number  83.
 Defaulting to unpruned grid for atomic number  83.
 Defaulting to unpruned grid for atomic number  83.
 Generated NRdTot=       0 NPtTot=           0 NUsed=           0 NTot=          32
 NSgBfM=   504   504   504   504   504 MxSgAt=     9 MxSgA2=     9.
 Leave Link  302 at Tue Mar  6 11:57:37 2018, MaxMem=   536870912 cpu:        26.1
 (Enter /share/apps//mg09/l303.exe)
 DipDrv:  MaxL=1.
 Leave Link  303 at Tue Mar  6 11:57:48 2018, MaxMem=   536870912 cpu:         0.2
 (Enter /share/apps//mg09/l401.exe)
 ExpMin= 4.62D-02 ExpMax= 4.66D+05 ExpMxC= 4.50D+03 IAcc=2 IRadAn=         4 AccDes= 0.00D+00
 Harris functional with IExCor= 1009 and IRadAn=       4 diagonalized for initial guess.
 HarFok:  IExCor= 1009 AccDes= 0.00D+00 IRadAn=         4 IDoV= 1 UseB2=F ITyADJ=14
 ICtDFT=  3500011 ScaDFX=  1.000000  1.000000  1.000000  1.000000
 Defaulting to unpruned grid for atomic number  83.
 Defaulting to unpruned grid for atomic number  83.
 Defaulting to unpruned grid for atomic number  83.
 Defaulting to unpruned grid for atomic number  83.
 FoFCou: FMM=F IPFlag=           0 FMFlag=      100000 FMFlg1=           0
         NFxFlg=           0 DoJE=T BraDBF=F KetDBF=T FulRan=T
         wScrn=  0.000000 ICntrl=     500 IOpCl=  0 I1Cent=   200000004 NGrid=           0
         NMat0=    1 NMatS0=      1 NMatT0=    0 NMatD0=    1 NMtDS0=    0 NMtDT0=    0
 Petite list used in FoFCou.
 Harris En= -7518.60023199063    
 JPrj=0 DoOrth=F DoCkMO=F.
 Leave Link  401 at Tue Mar  6 11:57:58 2018, MaxMem=   536870912 cpu:        10.0
 (Enter /share/apps//mg09/l502.exe)
 Closed shell SCF:
 Using DIIS extrapolation, IDIIS=  1040.
 Integral symmetry usage will be decided dynamically.
 IVT=     1410107 IEndB=     1410107 NGot=   536870912 MDV=   536322046
 LenX=   536322046 LenY=   536052166
 Requested convergence on RMS density matrix=1.00D-08 within 768 cycles.
 Requested convergence on MAX density matrix=1.00D-06.
 Requested convergence on             energy=1.00D-06.
 No special actions if energy rises.
 Fock matrices will be formed incrementally for  20 cycles.

 Cycle   1  Pass 1  IDiag  1:
 FoFJK:  IHMeth= 1 ICntrl=       0 DoSepK=F KAlg= 0 I1Cent=   0 FoldK=F
 IRaf= 880000000 NMat=   1 IRICut=       1 DoRegI=T DoRafI=F ISym2E= 0.
 FoFCou: FMM=F IPFlag=           0 FMFlag=      100000 FMFlg1=           0
         NFxFlg=           0 DoJE=F BraDBF=F KetDBF=F FulRan=T
         wScrn=  0.000000 ICntrl=       0 IOpCl=  0 I1Cent=           0 NGrid=           0
         NMat0=    1 NMatS0=      1 NMatT0=    0 NMatD0=    1 NMtDS0=    0 NMtDT0=    0
 Symmetry not used in FoFCou.
 Defaulting to unpruned grid for atomic number  83.
 Defaulting to unpruned grid for atomic number  83.
 Defaulting to unpruned grid for atomic number  83.
 Defaulting to unpruned grid for atomic number  83.
 E= -7517.30415787089    
 DIIS: error= 2.69D-02 at cycle   1 NSaved=   1.
 NSaved= 1 IEnMin= 1 EnMin= -7517.30415787089     IErMin= 1 ErrMin= 2.69D-02
 ErrMax= 2.69D-02  0.00D+00 EMaxC= 1.00D-01 BMatC= 1.42D+00 BMatP= 1.42D+00
 IDIUse=3 WtCom= 7.31D-01 WtEn= 2.69D-01
 Coeff-Com:  0.100D+01
 Coeff-En:   0.100D+01
 Coeff:      0.100D+01
 Gap=     0.120 Goal=   None    Shift=    0.000
 GapD=    0.120 DampG=1.000 DampE=0.500 DampFc=0.5000 IDamp=-1.
 Damping current iteration by 5.00D-01
 RMSDP=4.28D-03 MaxDP=1.80D-01              OVMax= 3.06D-01

 Cycle   2  Pass 1  IDiag  1:
 RMSU=  2.14D-03    CP:  1.00D+00
 E= -7517.47000691641     Delta-E=       -0.165849045514 Rises=F Damp=T
 DIIS: error= 7.59D-03 at cycle   2 NSaved=   2.
 NSaved= 2 IEnMin= 2 EnMin= -7517.47000691641     IErMin= 2 ErrMin= 7.59D-03
 ErrMax= 7.59D-03  0.00D+00 EMaxC= 1.00D-01 BMatC= 1.33D-01 BMatP= 1.42D+00
 IDIUse=3 WtCom= 9.24D-01 WtEn= 7.59D-02
 Coeff-Com:  0.142D-01 0.986D+00
 Coeff-En:   0.291D+00 0.709D+00
 Coeff:      0.352D-01 0.965D+00
 Gap=     0.166 Goal=   None    Shift=    0.000
 RMSDP=1.78D-03 MaxDP=1.12D-01 DE=-1.66D-01 OVMax= 3.31D-01

 Cycle   3  Pass 1  IDiag  1:
 RMSU=  1.53D-03    CP:  1.01D+00  5.76D-01
 E= -7517.49308826076     Delta-E=       -0.023081344352 Rises=F Damp=F
 DIIS: error= 1.23D-02 at cycle   3 NSaved=   3.
 NSaved= 3 IEnMin= 3 EnMin= -7517.49308826076     IErMin= 2 ErrMin= 7.59D-03
 ErrMax= 1.23D-02  0.00D+00 EMaxC= 1.00D-01 BMatC= 3.19D-01 BMatP= 1.33D-01
 IDIUse=2 WtCom= 0.00D+00 WtEn= 1.00D+00
 Coeff-En:   0.000D+00 0.475D+00 0.525D+00
 Coeff:      0.000D+00 0.475D+00 0.525D+00
 Gap=     0.169 Goal=   None    Shift=    0.000
 RMSDP=2.53D-03 MaxDP=1.19D-01 DE=-2.31D-02 OVMax= 3.29D-01

 Cycle   4  Pass 1  IDiag  1:
 RMSU=  1.16D-03    CP:  1.00D+00  1.11D+00 -2.62D-01
 E= -7517.38926876298     Delta-E=        0.103819497774 Rises=F Damp=F
 DIIS: error= 1.63D-02 at cycle   4 NSaved=   4.
 NSaved= 4 IEnMin= 3 EnMin= -7517.49308826076     IErMin= 2 ErrMin= 7.59D-03
 ErrMax= 1.63D-02  0.00D+00 EMaxC= 1.00D-01 BMatC= 3.40D-01 BMatP= 1.33D-01
 IDIUse=2 WtCom= 0.00D+00 WtEn= 1.00D+00
 Coeff-En:   0.000D+00 0.000D+00 0.548D+00 0.452D+00
 Coeff:      0.000D+00 0.000D+00 0.548D+00 0.452D+00
 Gap=     0.150 Goal=   None    Shift=    0.000
 RMSDP=1.72D-03 MaxDP=7.26D-02 DE= 1.04D-01 OVMax= 2.34D-01

 Cycle   5  Pass 1  IDiag  1:
 RMSU=  7.36D-04    CP:  9.99D-01  9.63D-01  3.03D-01 -7.91D-02
 E= -7517.73089606519     Delta-E=       -0.341627302209 Rises=F Damp=F
 DIIS: error= 6.78D-03 at cycle   5 NSaved=   5.
 NSaved= 5 IEnMin= 5 EnMin= -7517.73089606519     IErMin= 5 ErrMin= 6.78D-03
 ErrMax= 6.78D-03  0.00D+00 EMaxC= 1.00D-01 BMatC= 8.77D-02 BMatP= 1.33D-01
 IDIUse=3 WtCom= 9.32D-01 WtEn= 6.78D-02
 EnCoef did     6 forward-backward iterations
 Coeff-Com:  0.597D-02 0.278D-01 0.349D+00 0.312D+00 0.305D+00
 Coeff-En:   0.000D+00 0.000D+00 0.207D+00 0.215D+00 0.578D+00
 Coeff:      0.556D-02 0.259D-01 0.340D+00 0.305D+00 0.324D+00
 Gap=     0.125 Goal=   None    Shift=    0.000
 RMSDP=7.72D-04 MaxDP=5.42D-02 DE=-3.42D-01 OVMax= 8.96D-02

 Cycle   6  Pass 1  IDiag  1:
 RMSU=  2.25D-04    CP:  1.00D+00  8.37D-01  3.14D-01  3.39D-01  3.58D-01
 E= -7517.81292156088     Delta-E=       -0.082025495693 Rises=F Damp=F
 DIIS: error= 1.05D-03 at cycle   6 NSaved=   6.
 NSaved= 6 IEnMin= 6 EnMin= -7517.81292156088     IErMin= 6 ErrMin= 1.05D-03
 ErrMax= 1.05D-03  0.00D+00 EMaxC= 1.00D-01 BMatC= 2.24D-03 BMatP= 8.77D-02
 IDIUse=3 WtCom= 9.90D-01 WtEn= 1.05D-02
 Coeff-Com:  0.336D-02-0.127D-01 0.367D-01 0.270D-01 0.152D+00 0.793D+00
 Coeff-En:   0.000D+00 0.000D+00 0.000D+00 0.000D+00 0.000D+00 0.100D+01
 Coeff:      0.333D-02-0.125D-01 0.364D-01 0.267D-01 0.151D+00 0.795D+00
 Gap=     0.123 Goal=   None    Shift=    0.000
 RMSDP=1.77D-04 MaxDP=8.70D-03 DE=-8.20D-02 OVMax= 2.18D-02

 Cycle   7  Pass 1  IDiag  1:
 RMSU=  1.38D-04    CP:  1.00D+00  8.50D-01  3.41D-01  3.05D-01  4.56D-01
                    CP:  7.50D-01
 E= -7517.81354657310     Delta-E=       -0.000625012211 Rises=F Damp=F
 DIIS: error= 1.19D-03 at cycle   7 NSaved=   7.
 NSaved= 7 IEnMin= 7 EnMin= -7517.81354657310     IErMin= 6 ErrMin= 1.05D-03
 ErrMax= 1.19D-03  0.00D+00 EMaxC= 1.00D-01 BMatC= 1.40D-03 BMatP= 2.24D-03
 IDIUse=3 WtCom= 9.90D-01 WtEn= 1.05D-02
 Coeff-Com:  0.158D-02-0.821D-02 0.996D-02 0.288D-02 0.958D-01 0.613D+00
 Coeff-Com:  0.285D+00
 Coeff-En:   0.000D+00 0.000D+00 0.000D+00 0.000D+00 0.000D+00 0.432D+00
 Coeff-En:   0.568D+00
 Coeff:      0.157D-02-0.812D-02 0.985D-02 0.285D-02 0.948D-01 0.611D+00
 Coeff:      0.288D+00
 Gap=     0.123 Goal=   None    Shift=    0.000
 RMSDP=1.10D-04 MaxDP=3.95D-03 DE=-6.25D-04 OVMax= 1.30D-02

 Cycle   8  Pass 1  IDiag  1:
 RMSU=  4.38D-05    CP:  1.00D+00  8.52D-01  3.34D-01  2.94D-01  4.53D-01
                    CP:  8.74D-01  3.14D-01
 E= -7517.81526468646     Delta-E=       -0.001718113368 Rises=F Damp=F
 DIIS: error= 2.65D-04 at cycle   8 NSaved=   8.
 NSaved= 8 IEnMin= 8 EnMin= -7517.81526468646     IErMin= 8 ErrMin= 2.65D-04
 ErrMax= 2.65D-04  0.00D+00 EMaxC= 1.00D-01 BMatC= 8.59D-05 BMatP= 1.40D-03
 IDIUse=3 WtCom= 9.97D-01 WtEn= 2.65D-03
 Coeff-Com:  0.483D-03-0.302D-02 0.106D-03-0.385D-02 0.383D-01 0.297D+00
 Coeff-Com:  0.198D+00 0.473D+00
 Coeff-En:   0.000D+00 0.000D+00 0.000D+00 0.000D+00 0.000D+00 0.000D+00
 Coeff-En:   0.448D-01 0.955D+00
 Coeff:      0.482D-03-0.301D-02 0.106D-03-0.384D-02 0.382D-01 0.296D+00
 Coeff:      0.198D+00 0.474D+00
 Gap=     0.123 Goal=   None    Shift=    0.000
 RMSDP=3.31D-05 MaxDP=1.75D-03 DE=-1.72D-03 OVMax= 3.37D-03

 Cycle   9  Pass 1  IDiag  1:
 RMSU=  1.74D-05    CP:  1.00D+00  8.53D-01  3.31D-01  2.92D-01  4.53D-01
                    CP:  8.87D-01  3.84D-01  4.12D-01
 E= -7517.81534779170     Delta-E=       -0.000083105238 Rises=F Damp=F
 DIIS: error= 8.98D-05 at cycle   9 NSaved=   9.
 NSaved= 9 IEnMin= 9 EnMin= -7517.81534779170     IErMin= 9 ErrMin= 8.98D-05
 ErrMax= 8.98D-05  0.00D+00 EMaxC= 1.00D-01 BMatC= 1.86D-05 BMatP= 8.59D-05
 IDIUse=1 WtCom= 1.00D+00 WtEn= 0.00D+00
 Coeff-Com: -0.900D-05-0.185D-03-0.126D-02-0.405D-02 0.136D-01 0.130D+00
 Coeff-Com:  0.939D-01 0.327D+00 0.442D+00
 Coeff:     -0.900D-05-0.185D-03-0.126D-02-0.405D-02 0.136D-01 0.130D+00
 Coeff:      0.939D-01 0.327D+00 0.442D+00
 Gap=     0.123 Goal=   None    Shift=    0.000
 RMSDP=1.27D-05 MaxDP=9.07D-04 DE=-8.31D-05 OVMax= 1.22D-03

 Cycle  10  Pass 1  IDiag  1:
 RMSU=  5.65D-06    CP:  1.00D+00  8.51D-01  3.31D-01  2.93D-01  4.54D-01
                    CP:  8.88D-01  3.84D-01  5.96D-01  6.03D-01
 E= -7517.81536665768     Delta-E=       -0.000018865972 Rises=F Damp=F
 DIIS: error= 3.12D-05 at cycle  10 NSaved=  10.
 NSaved=10 IEnMin=10 EnMin= -7517.81536665768     IErMin=10 ErrMin= 3.12D-05
 ErrMax= 3.12D-05  0.00D+00 EMaxC= 1.00D-01 BMatC= 1.30D-06 BMatP= 1.86D-05
 IDIUse=1 WtCom= 1.00D+00 WtEn= 0.00D+00
 Coeff-Com: -0.584D-05-0.306D-04-0.493D-03-0.215D-02 0.464D-02 0.493D-01
 Coeff-Com:  0.370D-01 0.150D+00 0.265D+00 0.497D+00
 Coeff:     -0.584D-05-0.306D-04-0.493D-03-0.215D-02 0.464D-02 0.493D-01
 Coeff:      0.370D-01 0.150D+00 0.265D+00 0.497D+00
 Gap=     0.123 Goal=   None    Shift=    0.000
 RMSDP=4.79D-06 MaxDP=2.04D-04 DE=-1.89D-05 OVMax= 5.43D-04

 Cycle  11  Pass 1  IDiag  1:
 RMSU=  3.64D-06    CP:  1.00D+00  8.51D-01  3.32D-01  2.93D-01  4.54D-01
                    CP:  8.90D-01  3.85D-01  5.97D-01  6.89D-01  5.41D-01
 E= -7517.81536720081     Delta-E=       -0.000000543139 Rises=F Damp=F
 DIIS: error= 2.70D-05 at cycle  11 NSaved=  11.
 NSaved=11 IEnMin=11 EnMin= -7517.81536720081     IErMin=11 ErrMin= 2.70D-05
 ErrMax= 2.70D-05  0.00D+00 EMaxC= 1.00D-01 BMatC= 7.68D-07 BMatP= 1.30D-06
 IDIUse=1 WtCom= 1.00D+00 WtEn= 0.00D+00
 Coeff-Com:  0.111D-04-0.343D-04 0.188D-04-0.750D-03-0.127D-03 0.362D-02
 Coeff-Com:  0.380D-02 0.353D-01 0.108D+00 0.453D+00 0.397D+00
 Coeff:      0.111D-04-0.343D-04 0.188D-04-0.750D-03-0.127D-03 0.362D-02
 Coeff:      0.380D-02 0.353D-01 0.108D+00 0.453D+00 0.397D+00
 Gap=     0.123 Goal=   None    Shift=    0.000
 RMSDP=2.70D-06 MaxDP=1.32D-04 DE=-5.43D-07 OVMax= 3.15D-04

 Cycle  12  Pass 1  IDiag  1:
 RMSU=  1.00D-06    CP:  1.00D+00  8.51D-01  3.32D-01  2.93D-01  4.55D-01
                    CP:  8.91D-01  3.87D-01  5.96D-01  6.95D-01  7.93D-01
                    CP:  4.57D-01
 E= -7517.81536824065     Delta-E=       -0.000001039838 Rises=F Damp=F
 DIIS: error= 3.78D-06 at cycle  12 NSaved=  12.
 NSaved=12 IEnMin=12 EnMin= -7517.81536824065     IErMin=12 ErrMin= 3.78D-06
 ErrMax= 3.78D-06  0.00D+00 EMaxC= 1.00D-01 BMatC= 3.00D-08 BMatP= 7.68D-07
 IDIUse=1 WtCom= 1.00D+00 WtEn= 0.00D+00
 Coeff-Com:  0.172D-04-0.411D-04 0.970D-04-0.945D-04-0.873D-03-0.599D-02
 Coeff-Com: -0.409D-02-0.472D-02 0.140D-01 0.165D+00 0.226D+00 0.611D+00
 Coeff:      0.172D-04-0.411D-04 0.970D-04-0.945D-04-0.873D-03-0.599D-02
 Coeff:     -0.409D-02-0.472D-02 0.140D-01 0.165D+00 0.226D+00 0.611D+00
 Gap=     0.123 Goal=   None    Shift=    0.000
 RMSDP=5.63D-07 MaxDP=2.47D-05 DE=-1.04D-06 OVMax= 6.63D-05

 Cycle  13  Pass 1  IDiag  1:
 RMSU=  2.95D-07    CP:  1.00D+00  8.51D-01  3.32D-01  2.93D-01  4.55D-01
                    CP:  8.91D-01  3.87D-01  6.00D-01  7.05D-01  8.03D-01
                    CP:  5.43D-01  8.27D-01
 E= -7517.81536827630     Delta-E=       -0.000000035643 Rises=F Damp=F
 DIIS: error= 7.56D-07 at cycle  13 NSaved=  13.
 NSaved=13 IEnMin=13 EnMin= -7517.81536827630     IErMin=13 ErrMin= 7.56D-07
 ErrMax= 7.56D-07  0.00D+00 EMaxC= 1.00D-01 BMatC= 1.64D-09 BMatP= 3.00D-08
 IDIUse=1 WtCom= 1.00D+00 WtEn= 0.00D+00
 Coeff-Com:  0.969D-05-0.216D-04 0.361D-04 0.220D-04-0.414D-03-0.307D-02
 Coeff-Com: -0.222D-02-0.567D-02-0.391D-02 0.380D-01 0.716D-01 0.272D+00
 Coeff-Com:  0.634D+00
 Coeff:      0.969D-05-0.216D-04 0.361D-04 0.220D-04-0.414D-03-0.307D-02
 Coeff:     -0.222D-02-0.567D-02-0.391D-02 0.380D-01 0.716D-01 0.272D+00
 Coeff:      0.634D+00
 Gap=     0.123 Goal=   None    Shift=    0.000
 RMSDP=1.71D-07 MaxDP=1.17D-05 DE=-3.56D-08 OVMax= 2.11D-05

 Cycle  14  Pass 1  IDiag  1:
 RMSU=  1.05D-07    CP:  1.00D+00  8.51D-01  3.32D-01  2.93D-01  4.55D-01
                    CP:  8.92D-01  3.87D-01  6.02D-01  7.06D-01  8.07D-01
                    CP:  5.57D-01  8.83D-01  8.52D-01
 E= -7517.81536827837     Delta-E=       -0.000000002075 Rises=F Damp=F
 DIIS: error= 3.93D-07 at cycle  14 NSaved=  14.
 NSaved=14 IEnMin=14 EnMin= -7517.81536827837     IErMin=14 ErrMin= 3.93D-07
 ErrMax= 3.93D-07  0.00D+00 EMaxC= 1.00D-01 BMatC= 2.70D-10 BMatP= 1.64D-09
 IDIUse=1 WtCom= 1.00D+00 WtEn= 0.00D+00
 Coeff-Com:  0.290D-05-0.527D-05-0.195D-05 0.189D-04-0.854D-04-0.641D-03
 Coeff-Com: -0.557D-03-0.211D-02-0.364D-02-0.336D-02 0.346D-02 0.550D-01
 Coeff-Com:  0.322D+00 0.630D+00
 Coeff:      0.290D-05-0.527D-05-0.195D-05 0.189D-04-0.854D-04-0.641D-03
 Coeff:     -0.557D-03-0.211D-02-0.364D-02-0.336D-02 0.346D-02 0.550D-01
 Coeff:      0.322D+00 0.630D+00
 Gap=     0.123 Goal=   None    Shift=    0.000
 RMSDP=6.75D-08 MaxDP=3.93D-06 DE=-2.08D-09 OVMax= 7.42D-06

 Cycle  15  Pass 1  IDiag  1:
 RMSU=  4.24D-08    CP:  1.00D+00  8.51D-01  3.32D-01  2.93D-01  4.55D-01
                    CP:  8.92D-01  3.87D-01  6.02D-01  7.07D-01  8.11D-01
                    CP:  5.56D-01  8.94D-01  9.53D-01  8.46D-01
 E= -7517.81536827860     Delta-E=       -0.000000000229 Rises=F Damp=F
 DIIS: error= 2.07D-07 at cycle  15 NSaved=  15.
 NSaved=15 IEnMin=15 EnMin= -7517.81536827860     IErMin=15 ErrMin= 2.07D-07
 ErrMax= 2.07D-07  0.00D+00 EMaxC= 1.00D-01 BMatC= 4.58D-11 BMatP= 2.70D-10
 IDIUse=1 WtCom= 1.00D+00 WtEn= 0.00D+00
 Coeff-Com:  0.237D-06-0.193D-06-0.447D-05 0.691D-05 0.999D-05 0.567D-04
 Coeff-Com: -0.422D-04-0.271D-03-0.969D-03-0.565D-02-0.715D-02-0.119D-01
 Coeff-Com:  0.738D-01 0.331D+00 0.621D+00
 Coeff:      0.237D-06-0.193D-06-0.447D-05 0.691D-05 0.999D-05 0.567D-04
 Coeff:     -0.422D-04-0.271D-03-0.969D-03-0.565D-02-0.715D-02-0.119D-01
 Coeff:      0.738D-01 0.331D+00 0.621D+00
 Gap=     0.123 Goal=   None    Shift=    0.000
 RMSDP=2.66D-08 MaxDP=1.79D-06 DE=-2.29D-10 OVMax= 3.09D-06

 Cycle  16  Pass 1  IDiag  1:
 RMSU=  1.30D-08    CP:  1.00D+00  8.51D-01  3.32D-01  2.93D-01  4.55D-01
                    CP:  8.92D-01  3.87D-01  6.02D-01  7.07D-01  8.11D-01
                    CP:  5.58D-01  9.03D-01  9.60D-01  9.58D-01  7.99D-01
 E= -7517.81536827859     Delta-E=        0.000000000013 Rises=F Damp=F
 DIIS: error= 3.76D-08 at cycle  16 NSaved=  16.
 NSaved=16 IEnMin=15 EnMin= -7517.81536827860     IErMin=16 ErrMin= 3.76D-08
 ErrMax= 3.76D-08  0.00D+00 EMaxC= 1.00D-01 BMatC= 2.87D-12 BMatP= 4.58D-11
 IDIUse=1 WtCom= 1.00D+00 WtEn= 0.00D+00
 Coeff-Com: -0.291D-06 0.728D-06-0.151D-05 0.920D-06 0.112D-04 0.885D-04
 Coeff-Com:  0.403D-04 0.809D-04-0.797D-04-0.186D-02-0.284D-02-0.964D-02
 Coeff-Com:  0.275D-02 0.648D-01 0.256D+00 0.691D+00
 Coeff:     -0.291D-06 0.728D-06-0.151D-05 0.920D-06 0.112D-04 0.885D-04
 Coeff:      0.403D-04 0.809D-04-0.797D-04-0.186D-02-0.284D-02-0.964D-02
 Coeff:      0.275D-02 0.648D-01 0.256D+00 0.691D+00
 Gap=     0.123 Goal=   None    Shift=    0.000
 RMSDP=7.44D-09 MaxDP=3.88D-07 DE= 1.27D-11 OVMax= 1.05D-06

 SCF Done:  E(RPBE1PBE) =  -7517.81536828     A.U. after   16 cycles
            NFock= 16  Conv=0.74D-08     -V/T= 2.1285
 KE= 6.661963339907D+03 PE=-2.467869141465D+04 EE= 6.955167183748D+03
 Leave Link  502 at Tue Mar  6 12:09:57 2018, MaxMem=   536870912 cpu:      2839.9
 (Enter /share/apps//mg09/l601.exe)
 Copying SCF densities to generalized density rwf, IOpCl= 0 IROHF=0.

 **********************************************************************

            Population analysis using the SCF density.

 **********************************************************************

 Orbital symmetries:
       Occupied  (A) (A) (A) (A) (A) (A) (A) (A) (A) (A) (A) (A)
                 (A) (A) (A) (A) (A) (A) (A) (A) (A) (A) (A) (A)
                 (A) (A) (A) (A) (A) (A) (A) (A) (A) (A) (A) (A)
                 (A) (A) (A) (A) (A) (A) (A) (A) (A) (A) (A) (A)
                 (A) (A) (A) (A) (A) (A) (A) (A) (A) (A) (A) (A)
                 (A) (A) (A) (A) (A) (A) (A) (A) (A) (A) (A) (A)
                 (A) (A) (A) (A) (A) (A) (A) (A) (A) (A) (A) (A)
                 (A) (A) (A) (A) (A) (A) (A) (A) (A) (A) (A) (A)
                 (A) (A) (A) (A) (A) (A) (A) (A) (A) (A) (A) (A)
                 (A) (A) (A) (A) (A) (A) (A) (A)
       Virtual   (A) (A) (A) (A) (A) (A) (A) (A) (A) (A) (A) (A)
                 (A) (A) (A) (A) (A) (A) (A) (A) (A) (A) (A) (A)
                 (A) (A) (A) (A) (A) (A) (A) (A) (A) (A) (A) (A)
                 (A) (A) (A) (A) (A) (A) (A) (A) (A) (A) (A) (A)
                 (A) (A) (A) (A) (A) (A) (A) (A) (A) (A) (A) (A)
                 (A) (A) (A) (A) (A) (A) (A) (A) (A) (A) (A) (A)
                 (A) (A) (A) (A) (A) (A) (A) (A) (A) (A) (A) (A)
                 (A) (A) (A) (A) (A) (A) (A) (A) (A) (A) (A) (A)
                 (A) (A) (A) (A) (A) (A) (A) (A) (A) (A) (A) (A)
                 (A) (A) (A) (A) (A) (A) (A) (A) (A) (A) (A) (A)
                 (A) (A) (A) (A) (A) (A) (A) (A) (A) (A) (A) (A)
                 (A) (A) (A) (A) (A) (A) (A) (A) (A) (A) (A) (A)
                 (A) (A) (A) (A) (A) (A) (A) (A) (A) (A) (A) (A)
                 (A) (A) (A) (A) (A) (A) (A) (A) (A) (A) (A) (A)
                 (A) (A) (A) (A) (A) (A) (A) (A) (A) (A) (A) (A)
                 (A) (A) (A) (A) (A) (A) (A) (A) (A) (A) (A) (A)
                 (A) (A) (A) (A) (A) (A) (A) (A) (A) (A) (A) (A)
                 (A) (A) (A) (A) (A) (A) (A) (A) (A) (A) (A) (A)
                 (A) (A) (A) (A) (A) (A) (A) (A) (A) (A) (A) (A)
                 (A) (A) (A) (A) (A) (A) (A) (A) (A) (A) (A) (A)
                 (A) (A) (A) (A) (A) (A) (A) (A) (A) (A) (A) (A)
                 (A) (A) (A) (A) (A) (A) (A) (A) (A) (A) (A) (A)
                 (A) (A) (A) (A) (A) (A) (A) (A) (A) (A) (A) (A)
                 (A) (A) (A) (A) (A) (A) (A) (A) (A) (A) (A) (A)
                 (A) (A) (A) (A) (A) (A) (A) (A) (A) (A) (A) (A)
                 (A) (A) (A) (A) (A) (A) (A) (A) (A) (A) (A) (A)
                 (A) (A) (A) (A) (A) (A) (A) (A) (A) (A) (A) (A)
                 (A) (A) (A) (A)
 The electronic state is 1-A.
 Alpha  occ. eigenvalues -- -399.10318-399.09650-399.09505 -49.91852 -49.91224
 Alpha  occ. eigenvalues --  -49.91114 -44.39944 -44.39903 -44.39884 -44.39295
 Alpha  occ. eigenvalues --  -44.39280 -44.39261 -44.39188 -44.39162 -44.39145
 Alpha  occ. eigenvalues --   -6.28348  -6.27729  -6.27627  -6.02333  -6.02129
 Alpha  occ. eigenvalues --   -6.00994  -6.00931  -5.13888  -5.13409  -4.43810
 Alpha  occ. eigenvalues --   -4.43666  -4.43614  -4.43148  -4.43083  -4.43066
 Alpha  occ. eigenvalues --   -4.43016  -4.42964  -4.42913  -3.74605  -3.74480
 Alpha  occ. eigenvalues --   -3.74396  -3.74346  -3.74269  -3.74139  -3.73315
 Alpha  occ. eigenvalues --   -3.73260  -3.73143  -3.73072  -3.72930  -3.72856
 Alpha  occ. eigenvalues --   -3.47119  -3.46969  -3.46916  -3.46611  -3.46527
 Alpha  occ. eigenvalues --   -3.46430  -1.23238  -1.23218  -1.23167  -1.23084
 Alpha  occ. eigenvalues --   -1.23045  -1.22597  -1.22581  -1.22544  -1.22508
 Alpha  occ. eigenvalues --   -1.22494  -1.22459  -1.22455  -1.22447  -1.22347
 Alpha  occ. eigenvalues --   -1.22341  -1.08476  -1.08281  -1.08263  -1.08159
 Alpha  occ. eigenvalues --   -1.08055  -1.08018  -1.07938  -1.07934  -1.07812
 Alpha  occ. eigenvalues --   -1.07725  -1.06928  -1.06878  -1.06838  -1.06796
 Alpha  occ. eigenvalues --   -1.06746  -1.06677  -1.06568  -1.06523  -1.06497
 Alpha  occ. eigenvalues --   -1.06437  -1.03307  -1.03260  -1.03201  -1.03129
 Alpha  occ. eigenvalues --   -1.03066  -1.02761  -1.02746  -1.02691  -1.02575
 Alpha  occ. eigenvalues --   -1.02551  -0.66534  -0.62771  -0.58652  -0.57778
 Alpha  occ. eigenvalues --   -0.48845  -0.47803  -0.44318  -0.42912  -0.40565
 Alpha  occ. eigenvalues --   -0.29094  -0.27190  -0.26820  -0.26030  -0.24865
 Alpha  occ. eigenvalues --   -0.24110  -0.23876  -0.22496  -0.21761  -0.21335
 Alpha  occ. eigenvalues --   -0.19881
 Alpha virt. eigenvalues --   -0.07587  -0.07190  -0.06601  -0.06394  -0.06279
 Alpha virt. eigenvalues --   -0.05667  -0.05165  -0.04826  -0.04348  -0.04028
 Alpha virt. eigenvalues --   -0.03378  -0.02635  -0.01277   0.04042   0.04548
 Alpha virt. eigenvalues --    0.05349   0.06192   0.08367   0.08696   0.08739
 Alpha virt. eigenvalues --    0.09335   0.09490   0.09702   0.10326   0.10401
 Alpha virt. eigenvalues --    0.10947   0.11698   0.11889   0.12444   0.12908
 Alpha virt. eigenvalues --    0.13503   0.15770   0.16364   0.17164   0.17365
 Alpha virt. eigenvalues --    0.17511   0.18064   0.19326   0.19958   0.20557
 Alpha virt. eigenvalues --    0.20899   0.21203   0.21940   0.23021   0.23738
 Alpha virt. eigenvalues --    0.24171   0.26176   0.26817   0.28447   0.28944
 Alpha virt. eigenvalues --    0.29264   0.30250   0.30591   0.31047   0.31223
 Alpha virt. eigenvalues --    0.31525   0.31668   0.32372   0.33252   0.33499
 Alpha virt. eigenvalues --    0.34307   0.35254   0.36059   0.36776   0.36899
 Alpha virt. eigenvalues --    0.38456   0.39598   0.40029   0.40850   0.42510
 Alpha virt. eigenvalues --    0.42788   0.43071   0.43943   0.44238   0.45123
 Alpha virt. eigenvalues --    0.45787   0.46129   0.46677   0.47331   0.48191
 Alpha virt. eigenvalues --    0.48771   0.48843   0.50290   0.50317   0.51162
 Alpha virt. eigenvalues --    0.51822   0.53021   0.53807   0.55256   0.55773
 Alpha virt. eigenvalues --    0.56253   0.57921   0.58015   0.59271   0.59863
 Alpha virt. eigenvalues --    0.60141   0.60527   0.61737   0.61952   0.62859
 Alpha virt. eigenvalues --    0.63492   0.63700   0.64668   0.65090   0.65627
 Alpha virt. eigenvalues --    0.66572   0.66899   0.68230   0.69044   0.69210
 Alpha virt. eigenvalues --    0.70362   0.71585   0.72267   0.72959   0.73597
 Alpha virt. eigenvalues --    0.74407   0.76213   0.76616   0.77032   0.77948
 Alpha virt. eigenvalues --    0.78908   0.79905   0.81239   0.81692   0.82522
 Alpha virt. eigenvalues --    0.82999   0.83271   0.84149   0.84967   0.85401
 Alpha virt. eigenvalues --    0.86576   0.87112   0.88128   0.89155   0.89783
 Alpha virt. eigenvalues --    0.90863   0.91079   0.91561   0.92231   0.92964
 Alpha virt. eigenvalues --    0.93811   0.95199   0.95308   0.96045   0.96329
 Alpha virt. eigenvalues --    0.96891   0.98303   0.98995   0.99917   1.01016
 Alpha virt. eigenvalues --    1.01593   1.03484   1.04933   1.05891   1.07174
 Alpha virt. eigenvalues --    1.08752   1.09055   1.10268   1.12228   1.12610
 Alpha virt. eigenvalues --    1.13440   1.14503   1.15512   1.16169   1.18072
 Alpha virt. eigenvalues --    1.18564   1.19243   1.19635   1.19848   1.20346
 Alpha virt. eigenvalues --    1.21040   1.21429   1.21869   1.22159   1.22474
 Alpha virt. eigenvalues --    1.23201   1.24026   1.24383   1.24859   1.24908
 Alpha virt. eigenvalues --    1.25284   1.25586   1.25841   1.26621   1.27469
 Alpha virt. eigenvalues --    1.27837   1.28002   1.28892   1.29157   1.29306
 Alpha virt. eigenvalues --    1.30059   1.30536   1.31463   1.32081   1.32868
 Alpha virt. eigenvalues --    1.33966   1.34935   1.36309   1.37428   1.38613
 Alpha virt. eigenvalues --    1.39309   1.40162   1.41428   1.43300   1.44357
 Alpha virt. eigenvalues --    1.45491   1.45840   1.46821   1.47723   1.48381
 Alpha virt. eigenvalues --    1.49446   1.50235   1.51877   1.52589   1.53017
 Alpha virt. eigenvalues --    1.54462   1.54867   1.56767   1.59479   1.60702
 Alpha virt. eigenvalues --    1.63463   1.66724   1.68639   2.05374   2.07796
 Alpha virt. eigenvalues --    2.11107   2.11968   2.13050   2.15235   2.16680
 Alpha virt. eigenvalues --    2.17600   2.17777   2.19385   2.20057   2.21827
 Alpha virt. eigenvalues --    2.23546   2.23903   2.24529   2.25279   2.25909
 Alpha virt. eigenvalues --    2.27073   2.27456   2.29199   2.30624   2.31401
 Alpha virt. eigenvalues --    2.32499   2.34249   2.35643   2.36555   2.38044
 Alpha virt. eigenvalues --    2.38804   2.39960   2.42674   2.42797   2.44933
 Alpha virt. eigenvalues --    2.48970   2.50443   2.51786   2.54477   2.57578
 Alpha virt. eigenvalues --    2.59596   2.60038   2.62542   2.62908   2.66175
 Alpha virt. eigenvalues --    2.68426   2.69923   2.70745   2.70983   2.73644
 Alpha virt. eigenvalues --    2.75134   2.77605   2.79659   2.80340   2.80734
 Alpha virt. eigenvalues --    2.81714   2.82824   2.87175   2.93071   2.96915
 Alpha virt. eigenvalues --    3.20382   3.23507   3.34437   3.36423   3.38309
 Alpha virt. eigenvalues --    3.42692   3.96185   3.97239   3.98467   3.99262
 Alpha virt. eigenvalues --    3.99906   4.03568   4.06399   4.07965   4.10662
 Alpha virt. eigenvalues --    5.24973   5.32917   5.37179  35.38794  35.43033
 Alpha virt. eigenvalues --   35.44063  35.44335  35.45917  35.47878  35.49853
 Alpha virt. eigenvalues --   35.53031  35.54122  35.56503  35.59613  35.62972
 Alpha virt. eigenvalues --   35.93313  35.95644  35.97392  36.05442  36.19134
 Alpha virt. eigenvalues --   36.21783  36.91517  36.97994  36.99257  37.03554
 Alpha virt. eigenvalues --   37.07049  37.16829 113.57008 113.58864 120.23402
 Alpha virt. eigenvalues --  120.23756 120.24735 120.25761
          Condensed to atoms (all electrons):
               1          2          3          4          5          6
     1  Bi  22.383920   0.199294  -0.024075   0.147647  -0.024296  -0.017234
     2  Ge   0.199294  31.543533   0.171513   0.111555   0.141455  -0.014645
     3  Bi  -0.024075   0.171513  22.430391  -0.022437   0.168417  -0.014646
     4  Ge   0.147647   0.111555  -0.022437  31.529663   0.120247   0.136722
     5  Bi  -0.024296   0.141455   0.168417   0.120247  22.224612   0.177348
     6  Ge  -0.017234  -0.014645  -0.014646   0.136722   0.177348  31.623104
     7  Bi   0.162602  -0.019864  -0.019985   0.062377  -0.030844   0.181855
     8  Sn  -0.018787  -0.014910   0.137771  -0.022928   0.073893   0.138264
     9  Sn   0.164128  -0.005593   0.184082  -0.014978  -0.017818  -0.011236
               7          8          9
     1  Bi   0.162602  -0.018787   0.164128
     2  Ge  -0.019864  -0.014910  -0.005593
     3  Bi  -0.019985   0.137771   0.184082
     4  Ge   0.062377  -0.022928  -0.014978
     5  Bi  -0.030844   0.073893  -0.017818
     6  Ge   0.181855   0.138264  -0.011236
     7  Bi  22.268830   0.122031   0.145058
     8  Sn   0.122031  21.405491   0.121693
     9  Sn   0.145058   0.121693  21.443106
 Mulliken charges:
               1
     1  Bi   0.026801
     2  Ge  -0.112339
     3  Bi  -0.011031
     4  Ge  -0.047869
     5  Bi   0.166987
     6  Ge  -0.199532
     7  Bi   0.127941
     8  Sn   0.057483
     9  Sn  -0.008442
 Sum of Mulliken charges =   0.00000
 Mulliken charges with hydrogens summed into heavy atoms:
               1
     1  Bi   0.026801
     2  Ge  -0.112339
     3  Bi  -0.011031
     4  Ge  -0.047869
     5  Bi   0.166987
     6  Ge  -0.199532
     7  Bi   0.127941
     8  Sn   0.057483
     9  Sn  -0.008442
 Electronic spatial extent (au):  <R**2>=           6011.1801
 Charge=              0.0000 electrons
 Dipole moment (field-independent basis, Debye):
    X=             -0.0185    Y=             -0.3134    Z=             -0.7153  Tot=              0.7812
 Quadrupole moment (field-independent basis, Debye-Ang):
   XX=           -214.1893   YY=           -218.7307   ZZ=           -221.3978
   XY=             -1.0884   XZ=             -0.7704   YZ=             -0.3319
 Traceless Quadrupole moment (field-independent basis, Debye-Ang):
   XX=              3.9166   YY=             -0.6248   ZZ=             -3.2918
   XY=             -1.0884   XZ=             -0.7704   YZ=             -0.3319
 Octapole moment (field-independent basis, Debye-Ang**2):
  XXX=              2.0985  YYY=            -51.2774  ZZZ=             -0.4362  XYY=              1.2804
  XXY=             -6.5043  XXZ=              3.4765  XZZ=              1.6401  YZZ=             -9.8682
  YYZ=              0.0781  XYZ=             -9.1791
 Hexadecapole moment (field-independent basis, Debye-Ang**3):
 XXXX=          -3439.8593 YYYY=          -3169.2175 ZZZZ=          -3058.2365 XXXY=             15.7603
 XXXZ=            -22.0528 YYYX=             42.7950 YYYZ=            -11.5404 ZZZX=             11.9976
 ZZZY=            -27.4176 XXYY=          -1079.5516 XXZZ=          -1079.8970 YYZZ=          -1021.1124
 XXYZ=            -12.1538 YYXZ=              0.8952 ZZXY=              5.3415
 N-N= 3.543745522717D+03 E-N=-2.467869143126D+04  KE= 6.661963339907D+03
 No NMR shielding tensors so no spin-rotation constants.
 Leave Link  601 at Tue Mar  6 12:10:00 2018, MaxMem=   536870912 cpu:         1.1
 (Enter /share/apps//mg09/l701.exe)
 Compute integral first derivatives.
 ... and contract with generalized density number  0.
   1 Symmetry operations used in ECPInt.
 ECPInt:  NShTT=   10440 NPrTT=   41973 LenC2=    9668 LenP2D=   27433.
 LDataN:  DoStor=T MaxTD1= 9 Len=  602
 Leave Link  701 at Tue Mar  6 12:10:19 2018, MaxMem=   536870912 cpu:        65.9
 (Enter /share/apps//mg09/l702.exe)
 L702 exits ... SP integral derivatives will be done elsewhere.
 Leave Link  702 at Tue Mar  6 12:10:19 2018, MaxMem=   536870912 cpu:         0.1
 (Enter /share/apps//mg09/l703.exe)
 Compute integral first derivatives, UseDBF=F ICtDFT=           0.
 Integral derivatives from FoFJK, PRISM(SPDF).
 Calling FoFJK, ICntrl=      2127 FMM=F ISym2X=0 I1Cent= 0 IOpClX= 0 NMat=1 NMatS=1 NMatT=0.
 FoFJK:  IHMeth= 1 ICntrl=    2127 DoSepK=F KAlg= 0 I1Cent=   0 FoldK=F
 IRaf=         0 NMat=   1 IRICut=       1 DoRegI=T DoRafI=F ISym2E= 0.
 FoFCou: FMM=F IPFlag=           0 FMFlag=      100000 FMFlg1=         800
         NFxFlg=           0 DoJE=F BraDBF=F KetDBF=F FulRan=T
         wScrn=  0.000000 ICntrl=    2127 IOpCl=  0 I1Cent=           0 NGrid=           0
         NMat0=    1 NMatS0=      1 NMatT0=    0 NMatD0=    1 NMtDS0=    0 NMtDT0=    0
 Symmetry not used in FoFCou.
 Defaulting to unpruned grid for atomic number  83.
 Defaulting to unpruned grid for atomic number  83.
 Defaulting to unpruned grid for atomic number  83.
 Defaulting to unpruned grid for atomic number  83.
 Leave Link  703 at Tue Mar  6 12:13:28 2018, MaxMem=   536870912 cpu:       742.8
 (Enter /share/apps//mg09/l716.exe)
 Dipole        =-7.26628815D-03-1.23281887D-01-2.81426286D-01
 ***** Axes restored to original set *****
 -------------------------------------------------------------------
 Center     Atomic                   Forces (Hartrees/Bohr)
 Number     Number              X              Y              Z
 -------------------------------------------------------------------
      1       83           0.008159865    0.003914025    0.002321294
      2       32          -0.003818046    0.009615536    0.008693185
      3       83          -0.005842002    0.005116069   -0.002447868
      4       32           0.005610027   -0.006496296    0.010869587
      5       83          -0.011008827   -0.002054035    0.001908054
      6       32          -0.001645167   -0.014363564   -0.002483406
      7       83           0.009285340   -0.002277798   -0.002752380
      8       50          -0.005337092   -0.001846742   -0.010851788
      9       50           0.004595902    0.008392806   -0.005256678
 -------------------------------------------------------------------
 Cartesian Forces:  Max     0.014363564 RMS     0.006777108
 Force constants in Cartesian coordinates: 
                1             2             3             4             5 
      1  0.166318D+00
      2  0.349013D-01  0.134662D+00
      3  0.555723D-02  0.122204D-01  0.136201D+00
      4 -0.727099D-01  0.176529D-01  0.262043D-01  0.152127D+00
      5 -0.125441D-01 -0.214773D-01 -0.326678D-02 -0.793127D-02  0.143506D+00
      6  0.280290D-02 -0.116556D-01 -0.321735D-01 -0.736839D-03  0.366856D-01
      7 -0.482067D-02  0.138383D-02 -0.645822D-02 -0.287840D-01  0.135951D-01
      8  0.159640D-02  0.298403D-03 -0.855027D-04  0.322642D-02 -0.238534D-01
      9 -0.559185D-02 -0.342031D-03  0.520694D-02 -0.225763D-01  0.191849D-01
     10 -0.327896D-01 -0.342007D-01  0.139788D-01 -0.252770D-01  0.138205D-01
     11 -0.108853D-01 -0.577326D-01  0.272758D-01  0.153466D-01 -0.496521D-01
     12 -0.945718D-02  0.241957D-02 -0.366181D-01  0.370755D-02 -0.179331D-01
     13 -0.384852D-02 -0.513342D-02 -0.534463D-02 -0.441189D-01 -0.681732D-02
     14 -0.549024D-02  0.459656D-02 -0.228693D-02 -0.332342D-01 -0.517161D-01
     15  0.362384D-02  0.202752D-02  0.455638D-02 -0.190578D-01 -0.279510D-01
     16  0.241345D-02 -0.112751D-02 -0.366326D-02  0.865758D-02 -0.150898D-02
     17 -0.632194D-02 -0.278033D-02 -0.425435D-02  0.163832D-02 -0.335940D-02
     18 -0.395653D-02 -0.156673D-02  0.828721D-02  0.328855D-02 -0.114468D-02
     19 -0.294248D-01 -0.148767D-01 -0.104564D-01  0.131086D-02  0.537235D-02
     20  0.132802D-01 -0.413217D-01 -0.229388D-01  0.294120D-02  0.230197D-02
     21  0.163015D-01 -0.216189D-01 -0.372739D-01 -0.414453D-03 -0.127307D-02
     22  0.837260D-03 -0.165829D-02  0.770057D-04  0.411100D-02 -0.233578D-02
     23 -0.388934D-02  0.425673D-02 -0.174355D-02  0.154464D-02  0.382416D-02
     24 -0.823180D-02 -0.423990D-02 -0.112497D-02  0.353425D-02 -0.515205D-02
     25 -0.259754D-01  0.305861D-02 -0.198948D-01  0.468298D-02 -0.165050D-02
     26 -0.106470D-01 -0.205014D-01 -0.492026D-02 -0.118462D-02  0.426014D-03
     27 -0.104815D-02  0.227557D-01 -0.470609D-01  0.605066D-02  0.850238D-03
                6             7             8             9            10 
      6  0.163025D+00
      7 -0.634257D-02  0.132416D+00
      8 -0.133990D-01 -0.317995D-01  0.143345D+00
      9 -0.616032D-01  0.467960D-02 -0.172104D-01  0.129881D+00
     10 -0.141436D-01  0.204826D-02  0.218052D-02  0.113213D-02  0.159746D+00
     11  0.189678D-01  0.653695D-02  0.117473D-02  0.261574D-02 -0.512040D-03
     12 -0.331929D-01 -0.628618D-02  0.733960D-02  0.174453D-02  0.259010D-01
     13  0.694919D-02 -0.304252D-01  0.133827D-01 -0.103048D-02 -0.618885D-01
     14 -0.118019D-01 -0.212087D-01 -0.531324D-01  0.196799D-01  0.126875D-01
     15 -0.301153D-01  0.168349D-01  0.154534D-01 -0.262290D-01 -0.315018D-01
     16  0.228467D-02  0.350706D-02  0.468773D-04 -0.257271D-02 -0.254678D-01
     17 -0.826119D-02  0.618825D-02 -0.483294D-02  0.151694D-02  0.280530D-02
     18  0.276538D-02 -0.232313D-02 -0.778255D-03  0.783922D-02 -0.116472D-01
     19  0.808761D-02 -0.198462D-02  0.669693D-02 -0.284589D-02 -0.264195D-01
     20 -0.619250D-02  0.500253D-02  0.119709D-02  0.246533D-02  0.142374D-02
     21  0.361582D-03  0.423935D-02 -0.307437D-02  0.379455D-02  0.242291D-01
     22 -0.487129D-02 -0.195648D-01  0.183231D-01  0.108875D-01  0.584969D-02
     23 -0.420723D-02  0.252746D-02 -0.414538D-01 -0.281486D-01 -0.869838D-03
     24 -0.380377D-02 -0.101343D-01 -0.170299D-03 -0.367537D-01 -0.555108D-02
     25  0.596996D-02 -0.523918D-01 -0.136534D-01  0.179181D-01  0.419867D-02
     26 -0.135913D-03  0.177741D-01 -0.227431D-01  0.238272D-03  0.266498D-02
     27 -0.526328D-02  0.579060D-02  0.119249D-01 -0.238803D-01 -0.239732D-02
               11            12            13            14            15 
     11  0.186805D+00
     12 -0.341097D-01  0.206499D+00
     13 -0.805417D-02  0.256026D-02  0.231767D+00
     14 -0.248258D-01  0.117148D-01  0.156370D-01  0.186252D+00
     15  0.729059D-02 -0.343259D-01 -0.201959D-01  0.323598D-02  0.146980D+00
     16 -0.122822D-01 -0.108485D-01 -0.566609D-01  0.419166D-01  0.216650D-01
     17 -0.426823D-01  0.129309D-01  0.635553D-03 -0.549702D-01 -0.451969D-02
     18 -0.306567D-01 -0.531088D-01  0.141653D-01 -0.194321D-01 -0.288009D-01
     19  0.113867D-01 -0.429759D-02 -0.847144D-02 -0.331166D-02  0.597675D-02
     20 -0.196002D-01  0.140060D-01  0.463173D-02  0.590854D-02 -0.221489D-02
     21 -0.311785D-02 -0.423418D-01  0.636866D-02  0.108043D-02  0.512297D-02
     22  0.174375D-02 -0.601219D-02 -0.263740D-01 -0.487193D-02  0.232962D-01
     23  0.572050D-02 -0.201153D-02 -0.752550D-02 -0.141024D-01  0.491452D-02
     24  0.562441D-02 -0.786558D-02 -0.102828D-01 -0.654844D-02 -0.386983D-01
     25 -0.328029D-02  0.473275D-02  0.204406D-04 -0.212437D-02 -0.641303D-03
     26  0.792764D-03  0.564345D-02 -0.675656D-02  0.198973D-02  0.176358D-02
     27  0.610993D-02 -0.790774D-03  0.681032D-02  0.435829D-02  0.151048D-02
               16            17            18            19            20 
     16  0.144060D+00
     17  0.696454D-02  0.205364D+00
     18 -0.118772D-01  0.101119D-01  0.127157D+00
     19 -0.648614D-01 -0.281136D-02  0.174966D-01  0.207413D+00
     20 -0.432364D-01 -0.514682D-01  0.138827D-01 -0.109986D-01  0.173657D+00
     21  0.121157D-01 -0.300356D-02 -0.260701D-01 -0.309566D-01  0.117812D-01
     22 -0.188875D-01 -0.447678D-02 -0.710657D-02 -0.465835D-01  0.115072D-02
     23  0.106019D-01 -0.414503D-01  0.305336D-01  0.117387D-01 -0.192386D-01
     24 -0.990225D-02 -0.100654D-01 -0.414345D-01  0.716589D-02 -0.912206D-02
     25  0.723918D-02 -0.462188D-02  0.196018D-02 -0.309787D-01  0.258049D-01
     26 -0.137474D-02 -0.381997D-02 -0.949790D-03 -0.319637D-02 -0.514356D-01
     27  0.279852D-02  0.554443D-02  0.336562D-02  0.982959D-02 -0.166703D-02
               21            22            23            24            25 
     21  0.145649D+00
     22 -0.278963D-01  0.124194D+00
     23  0.899202D-03  0.348045D-02  0.135179D+00
     24 -0.311571D-01  0.301985D-01  0.170339D-01  0.187471D+00
     25 -0.398704D-02 -0.235826D-01 -0.176084D-01  0.320359D-02  0.116787D+00
     26  0.183270D-01 -0.113552D-01 -0.327358D-01  0.126399D-01  0.140754D-01
     27 -0.180853D-01 -0.185729D-01 -0.172703D-01 -0.266329D-01 -0.926136D-02
               26            27 
     26  0.128027D+00
     27 -0.326062D-01  0.116837D+00
 Leave Link  716 at Tue Mar  6 12:13:33 2018, MaxMem=   536870912 cpu:         0.1
 (Enter /share/apps//mg09/l103.exe)

 GradGradGradGradGradGradGradGradGradGradGradGradGradGradGradGradGradGrad
 Berny optimization.
 Search for a local minimum.
 Step number   1 out of a maximum of  100
 All quantities printed in internal units (Hartrees-Bohrs-Radians)
 Second derivative matrix not updated -- first step.
 ITU=  0
     Eigenvalues ---    0.08056   0.11835   0.12078   0.12617   0.13627
     Eigenvalues ---    0.14123   0.14875   0.15391   0.16106   0.16803
     Eigenvalues ---    0.17415   0.22714   0.22974   0.23923   0.24480
     Eigenvalues ---    0.24755   0.26952   0.29122   0.29955   0.31927
     Eigenvalues ---    0.32016
 RFO step:  Lambda=-7.31043092D-03 EMin= 8.05586853D-02
 Linear search not attempted -- first point.
 TrRot= -0.000096 -0.001281  0.002016  0.193975 -0.000036 -0.193974
 MatCor failed.
 Variable       Old X    -DE/DX   Delta X   Delta X   Delta X     New X
                                 (Linear)    (Quad)   (Total)
    X1       -3.81741   0.00816   0.00000   0.05085   0.05084  -3.76657
    Y1       -1.94612   0.00391   0.00000   0.02429   0.02302  -1.92309
    Z1       -2.36645   0.00232   0.00000   0.02717   0.02904  -2.33740
    X2        1.31409  -0.00382   0.00000  -0.02128  -0.02123   1.29285
    Y2       -2.31754   0.00962   0.00000   0.05532   0.05407  -2.26347
    Z2       -4.06504   0.00869   0.00000   0.04794   0.04998  -4.01506
    X3        3.37772  -0.00584   0.00000  -0.04656  -0.04669   3.33103
    Y3       -3.19257   0.00512   0.00000   0.03852   0.03723  -3.15534
    Z3        1.02502  -0.00245   0.00000  -0.02085  -0.01874   1.00628
    X4       -1.05318   0.00561   0.00000   0.02646   0.02650  -1.02668
    Y4        2.56844  -0.00650   0.00000  -0.03200  -0.03325   2.53519
    Z4       -3.95561   0.01087   0.00000   0.05628   0.05828  -3.89733
    X5        4.05817  -0.01101   0.00000  -0.05026  -0.05030   4.00787
    Y5        1.82383  -0.00205   0.00000  -0.01777  -0.01903   1.80479
    Z5       -1.64993   0.00191   0.00000   0.01914   0.02131  -1.62862
    X6        0.46576  -0.00165   0.00000  -0.00935  -0.00946   0.45630
    Y6        5.35956  -0.01436   0.00000  -0.08158  -0.08286   5.27669
    Z6        0.27481  -0.00248   0.00000  -0.01648  -0.01441   0.26039
    X7       -3.68857   0.00929   0.00000   0.04853   0.04837  -3.64020
    Y7        2.20970  -0.00228   0.00000  -0.02318  -0.02448   2.18522
    Z7        1.61058  -0.00275   0.00000  -0.02121  -0.01930   1.59127
    X8        1.65871  -0.00534   0.00000  -0.03042  -0.03066   1.62805
    Y8        1.46464  -0.00185   0.00000  -0.01113  -0.01244   1.45221
    Z8        4.21603  -0.01085   0.00000  -0.07053  -0.06844   4.14759
    X9       -2.00742   0.00460   0.00000   0.03283   0.03263  -1.97479
    Y9       -3.22077   0.00839   0.00000   0.05904   0.05774  -3.16303
    Z9        3.03340  -0.00526   0.00000  -0.03964  -0.03772   2.99569
         Item               Value     Threshold  Converged?
 Maximum Force            0.014364     0.000450     NO 
 RMS     Force            0.006777     0.000300     NO 
 Maximum Displacement     0.082863     0.001800     NO 
 RMS     Displacement     0.040540     0.001200     NO 
 Predicted change in Energy=-3.817587D-03
 Lowest energy point so far.  Saving SCF results.
 GradGradGradGradGradGradGradGradGradGradGradGradGradGradGradGradGradGrad

 Leave Link  103 at Tue Mar  6 12:13:34 2018, MaxMem=   536870912 cpu:         0.3
 (Enter /share/apps//mg09/l202.exe)
                          Input orientation:                          
 ---------------------------------------------------------------------
 Center     Atomic      Atomic             Coordinates (Angstroms)
 Number     Number       Type             X           Y           Z
 ---------------------------------------------------------------------
      1         83           0       -1.993185   -1.017658   -1.236901
      2         32           0        0.684148   -1.197779   -2.124678
      3         83           0        1.762704   -1.669734    0.532501
      4         32           0       -0.543294    1.341565   -2.062379
      5         83           0        2.120875    0.955056   -0.861826
      6         32           0        0.241465    2.792306    0.137793
      7         83           0       -1.926310    1.156369    0.842066
      8         50           0        0.861525    0.768474    2.194809
      9         50           0       -1.045015   -1.673802    1.585248
 ---------------------------------------------------------------------
                    Distance matrix (angstroms):
                    1          2          3          4          5
     1  Bi   0.000000
     2  Ge   2.826430   0.000000
     3  Bi   4.202700   2.906308   0.000000
     4  Ge   2.889555   2.821127   4.595535   0.000000
     5  Bi   4.577966   2.879875   2.993653   2.947628   0.000000
     6  Ge   4.625934   4.608201   4.730725   2.749773   2.811922
     7  Bi   3.008814   4.599790   4.657414   3.222239   4.395848
     8  Sn   4.807938   4.749272   3.085491   4.519469   3.311162
     9  Sn   3.048619   4.120699   2.998596   4.759133   4.787685
                    6          7          8          9
     6  Ge   0.000000
     7  Bi   2.805626   0.000000
     8  Sn   2.951556   3.122883   0.000000
     9  Sn   4.867882   3.055956   3.157716   0.000000
 Stoichiometry    Bi4Ge3Sn2
 Framework group  C1[X(Bi4Ge3Sn2)]
 Deg. of freedom    21
 Full point group                 C1      NOp   1
 RotChk:  IX=0 Diff= 5.17D-03
 Largest Abelian subgroup         C1      NOp   1
 Largest concise Abelian subgroup C1      NOp   1
                         Standard orientation:                         
 ---------------------------------------------------------------------
 Center     Atomic      Atomic             Coordinates (Angstroms)
 Number     Number       Type             X           Y           Z
 ---------------------------------------------------------------------
      1         83           0        1.988556   -1.020567    1.242275
      2         32           0       -0.692018   -1.200339    2.120290
      3         83           0       -1.761116   -1.670601   -0.541008
      4         32           0        0.536401    1.338666    2.063732
      5         83           0       -2.123533    0.953578    0.853373
      6         32           0       -0.239978    2.790776   -0.138508
      7         83           0        1.929836    1.154550   -0.835796
      8         50           0       -0.853214    0.768192   -2.198794
      9         50           0        1.050382   -1.674972   -1.583616
 ---------------------------------------------------------------------
 Rotational constants (GHZ):      0.1079783      0.0891605      0.0848428
 Leave Link  202 at Tue Mar  6 12:13:35 2018, MaxMem=   536870912 cpu:         0.0
 (Enter /share/apps//mg09/l301.exe)
 Standard basis: def2TZVP (5D, 7F)
 Ernie: Thresh=  0.10000D-02 Tol=  0.10000D-05 Strict=F.
 There are   519 symmetry adapted cartesian basis functions of A   symmetry.
 There are   444 symmetry adapted basis functions of A   symmetry.
   444 basis functions,   963 primitive gaussians,   519 cartesian basis functions
   116 alpha electrons      116 beta electrons
       nuclear repulsion energy      3596.1059939519 Hartrees.
 IExCor= 1009 DFT=T Ex+Corr=PBE1PBE ExCW=0 ScaHFX=  0.250000
 ScaDFX=  0.750000  0.750000  1.000000  1.000000 ScalE2=  1.000000  1.000000
 IRadAn=      0 IRanWt=     -1 IRanGd=            0 ICorTp=0 IEmpDi=  4
 NAtoms=    9 NActive=    9 NUniq=    9 SFac= 1.00D+00 NAtFMM=   60 NAOKFM=F Big=F
 Integral buffers will be    131072 words long.
 Raffenetti 2 integral format.
 Two-electron integral symmetry is turned on.
 Leave Link  301 at Tue Mar  6 12:13:35 2018, MaxMem=   536870912 cpu:         0.2
 (Enter /share/apps//mg09/l302.exe)
 NPDir=0 NMtPBC=     1 NCelOv=     1 NCel=       1 NClECP=     1 NCelD=      1
         NCelK=      1 NCelE2=     1 NClLst=     1 CellRange=     0.0.
 One-electron integrals computed using PRISM.
   1 Symmetry operations used in ECPInt.
 ECPInt:  NShTT=   10440 NPrTT=   41973 LenC2=    9699 LenP2D=   27612.
 LDataN:  DoStor=T MaxTD1= 8 Len=  415
 NBasis=   444 RedAO= T EigKep=  1.41D-03  NBF=   444
 NBsUse=   444 1.00D-06 EigRej= -1.00D+00 NBFU=   444
 Precomputing XC quadrature grid using
 IXCGrd= 4 IRadAn=           0 IRanWt=          -1 IRanGd=           0 AccXCQ= 0.00D+00.
 Defaulting to unpruned grid for atomic number  83.
 Defaulting to unpruned grid for atomic number  83.
 Defaulting to unpruned grid for atomic number  83.
 Generated NRdTot=       0 NPtTot=           0 NUsed=           0 NTot=          32
 NSgBfM=   501   501   503   503   503 MxSgAt=     9 MxSgA2=     9.
 Leave Link  302 at Tue Mar  6 12:13:42 2018, MaxMem=   536870912 cpu:        25.8
 (Enter /share/apps//mg09/l303.exe)
 DipDrv:  MaxL=1.
 Leave Link  303 at Tue Mar  6 12:13:42 2018, MaxMem=   536870912 cpu:         0.2
 (Enter /share/apps//mg09/l401.exe)
 Initial guess from the checkpoint file:  "Isomer_13.chk"
 B after Tr=     0.000000    0.000000    0.000000
         Rot=    0.999998   -0.000324    0.001772    0.000122 Ang=  -0.21 deg.
 Guess basis will be translated and rotated to current coordinates.
 JPrj=2 DoOrth=T DoCkMO=T.
 Generating alternative initial guess.
 ExpMin= 4.62D-02 ExpMax= 4.66D+05 ExpMxC= 4.50D+03 IAcc=2 IRadAn=         4 AccDes= 0.00D+00
 Harris functional with IExCor= 1009 and IRadAn=       4 diagonalized for initial guess.
 HarFok:  IExCor= 1009 AccDes= 0.00D+00 IRadAn=         4 IDoV= 1 UseB2=F ITyADJ=14
 ICtDFT=  3500011 ScaDFX=  1.000000  1.000000  1.000000  1.000000
 Defaulting to unpruned grid for atomic number  83.
 Defaulting to unpruned grid for atomic number  83.
 Defaulting to unpruned grid for atomic number  83.
 Defaulting to unpruned grid for atomic number  83.
 FoFCou: FMM=F IPFlag=           0 FMFlag=      100000 FMFlg1=           0
         NFxFlg=           0 DoJE=T BraDBF=F KetDBF=T FulRan=T
         wScrn=  0.000000 ICntrl=     500 IOpCl=  0 I1Cent=   200000004 NGrid=           0
         NMat0=    1 NMatS0=      1 NMatT0=    0 NMatD0=    1 NMtDS0=    0 NMtDT0=    0
 Petite list used in FoFCou.
 Harris En= -7518.60911416843    
 Leave Link  401 at Tue Mar  6 12:13:45 2018, MaxMem=   536870912 cpu:        11.3
 (Enter /share/apps//mg09/l502.exe)
 Closed shell SCF:
 Using DIIS extrapolation, IDIIS=  1040.
 Integral symmetry usage will be decided dynamically.
 IVT=     1410107 IEndB=     1410107 NGot=   536870912 MDV=   536322046
 LenX=   536322046 LenY=   536052166
 Requested convergence on RMS density matrix=1.00D-08 within 768 cycles.
 Requested convergence on MAX density matrix=1.00D-06.
 Requested convergence on             energy=1.00D-06.
 No special actions if energy rises.
 Fock matrices will be formed incrementally for  20 cycles.

 Cycle   1  Pass 1  IDiag  1:
 FoFJK:  IHMeth= 1 ICntrl=       0 DoSepK=F KAlg= 0 I1Cent=   0 FoldK=F
 IRaf= 880000000 NMat=   1 IRICut=       1 DoRegI=T DoRafI=F ISym2E= 0.
 FoFCou: FMM=F IPFlag=           0 FMFlag=      100000 FMFlg1=           0
         NFxFlg=           0 DoJE=F BraDBF=F KetDBF=F FulRan=T
         wScrn=  0.000000 ICntrl=       0 IOpCl=  0 I1Cent=           0 NGrid=           0
         NMat0=    1 NMatS0=      1 NMatT0=    0 NMatD0=    1 NMtDS0=    0 NMtDT0=    0
 Symmetry not used in FoFCou.
 Defaulting to unpruned grid for atomic number  83.
 Defaulting to unpruned grid for atomic number  83.
 Defaulting to unpruned grid for atomic number  83.
 Defaulting to unpruned grid for atomic number  83.
 E= -7517.81946177810    
 DIIS: error= 5.05D-03 at cycle   1 NSaved=   1.
 NSaved= 1 IEnMin= 1 EnMin= -7517.81946177810     IErMin= 1 ErrMin= 5.05D-03
 ErrMax= 5.05D-03  0.00D+00 EMaxC= 1.00D-01 BMatC= 7.74D-03 BMatP= 7.74D-03
 IDIUse=3 WtCom= 9.50D-01 WtEn= 5.05D-02
 Coeff-Com:  0.100D+01
 Coeff-En:   0.100D+01
 Coeff:      0.100D+01
 Gap=     8.348 Goal=   None    Shift=    0.000
 GapD=    8.348 DampG=2.000 DampE=1.000 DampFc=2.0000 IDamp=-1.
 RMSDP=1.64D-04 MaxDP=3.88D-03              OVMax= 1.89D-02

 Cycle   2  Pass 1  IDiag  1:
 RMSU=  1.64D-04    CP:  1.00D+00
 E= -7517.81949909011     Delta-E=       -0.000037312009 Rises=F Damp=F
 DIIS: error= 1.40D-03 at cycle   2 NSaved=   2.
 NSaved= 2 IEnMin= 2 EnMin= -7517.81949909011     IErMin= 2 ErrMin= 1.40D-03
 ErrMax= 1.40D-03  0.00D+00 EMaxC= 1.00D-01 BMatC= 1.40D-03 BMatP= 7.74D-03
 IDIUse=3 WtCom= 9.86D-01 WtEn= 1.40D-02
 Coeff-Com:  0.191D+00 0.809D+00
 Coeff-En:   0.488D+00 0.512D+00
 Coeff:      0.195D+00 0.805D+00
 Gap=     0.126 Goal=   None    Shift=    0.000
 RMSDP=1.93D-04 MaxDP=7.51D-03 DE=-3.73D-05 OVMax= 1.60D-02

 Cycle   3  Pass 1  IDiag  1:
 RMSU=  1.75D-04    CP:  9.99D-01  5.37D-01
 E= -7517.81781429151     Delta-E=        0.001684798593 Rises=F Damp=F
 DIIS: error= 2.09D-03 at cycle   3 NSaved=   3.
 NSaved= 3 IEnMin= 2 EnMin= -7517.81949909011     IErMin= 2 ErrMin= 1.40D-03
 ErrMax= 2.09D-03  0.00D+00 EMaxC= 1.00D-01 BMatC= 3.38D-03 BMatP= 1.40D-03
 IDIUse=3 WtCom= 1.80D-01 WtEn= 8.20D-01
 Coeff-Com:  0.575D-02 0.608D+00 0.387D+00
 Coeff-En:   0.000D+00 0.669D+00 0.331D+00
 Coeff:      0.103D-02 0.658D+00 0.341D+00
 Gap=     0.126 Goal=   None    Shift=    0.000
 RMSDP=1.09D-04 MaxDP=4.41D-03 DE= 1.68D-03 OVMax= 1.26D-02

 Cycle   4  Pass 1  IDiag  1:
 RMSU=  4.05D-05    CP:  9.99D-01  8.10D-01  4.87D-01
 E= -7517.82040726624     Delta-E=       -0.002592974730 Rises=F Damp=F
 DIIS: error= 4.07D-04 at cycle   4 NSaved=   4.
 NSaved= 4 IEnMin= 4 EnMin= -7517.82040726624     IErMin= 4 ErrMin= 4.07D-04
 ErrMax= 4.07D-04  0.00D+00 EMaxC= 1.00D-01 BMatC= 1.93D-04 BMatP= 1.40D-03
 IDIUse=3 WtCom= 9.96D-01 WtEn= 4.07D-03
 Coeff-Com:  0.181D-04 0.446D+00 0.241D+00 0.312D+00
 Coeff-En:   0.000D+00 0.101D+00 0.000D+00 0.899D+00
 Coeff:      0.180D-04 0.445D+00 0.240D+00 0.315D+00
 Gap=     0.126 Goal=   None    Shift=    0.000
 RMSDP=3.60D-05 MaxDP=1.87D-03 DE=-2.59D-03 OVMax= 4.12D-03

 Cycle   5  Pass 1  IDiag  1:
 RMSU=  1.31D-05    CP:  9.99D-01  8.61D-01  4.38D-01  2.32D-01
 E= -7517.82057048930     Delta-E=       -0.000163223054 Rises=F Damp=F
 DIIS: error= 1.07D-04 at cycle   5 NSaved=   5.
 NSaved= 5 IEnMin= 5 EnMin= -7517.82057048930     IErMin= 5 ErrMin= 1.07D-04
 ErrMax= 1.07D-04  0.00D+00 EMaxC= 1.00D-01 BMatC= 1.24D-05 BMatP= 1.93D-04
 IDIUse=3 WtCom= 9.99D-01 WtEn= 1.07D-03
 Coeff-Com: -0.882D-03 0.219D+00 0.107D+00 0.234D+00 0.442D+00
 Coeff-En:   0.000D+00 0.000D+00 0.000D+00 0.761D-01 0.924D+00
 Coeff:     -0.881D-03 0.219D+00 0.106D+00 0.234D+00 0.442D+00
 Gap=     0.126 Goal=   None    Shift=    0.000
 RMSDP=9.29D-06 MaxDP=5.22D-04 DE=-1.63D-04 OVMax= 1.13D-03

 Cycle   6  Pass 1  IDiag  1:
 RMSU=  3.56D-06    CP:  9.99D-01  8.71D-01  4.33D-01  3.89D-01  6.08D-01
 E= -7517.82058370257     Delta-E=       -0.000013213272 Rises=F Damp=F
 DIIS: error= 1.25D-05 at cycle   6 NSaved=   6.
 NSaved= 6 IEnMin= 6 EnMin= -7517.82058370257     IErMin= 6 ErrMin= 1.25D-05
 ErrMax= 1.25D-05  0.00D+00 EMaxC= 1.00D-01 BMatC= 3.65D-07 BMatP= 1.24D-05
 IDIUse=1 WtCom= 1.00D+00 WtEn= 0.00D+00
 Coeff-Com: -0.435D-03 0.813D-01 0.397D-01 0.967D-01 0.225D+00 0.557D+00
 Coeff:     -0.435D-03 0.813D-01 0.397D-01 0.967D-01 0.225D+00 0.557D+00
 Gap=     0.126 Goal=   None    Shift=    0.000
 RMSDP=2.60D-06 MaxDP=1.17D-04 DE=-1.32D-05 OVMax= 3.34D-04

 Cycle   7  Pass 1  IDiag  1:
 RMSU=  2.26D-06    CP:  9.99D-01  8.74D-01  4.35D-01  3.88D-01  6.67D-01
                    CP:  7.95D-01
 E= -7517.82058372484     Delta-E=       -0.000000022268 Rises=F Damp=F
 DIIS: error= 1.73D-05 at cycle   7 NSaved=   7.
 NSaved= 7 IEnMin= 7 EnMin= -7517.82058372484     IErMin= 6 ErrMin= 1.25D-05
 ErrMax= 1.73D-05  0.00D+00 EMaxC= 1.00D-01 BMatC= 3.03D-07 BMatP= 3.65D-07
 IDIUse=1 WtCom= 1.00D+00 WtEn= 0.00D+00
 Coeff-Com: -0.131D-03 0.898D-02 0.521D-02 0.189D-01 0.719D-01 0.480D+00
 Coeff-Com:  0.415D+00
 Coeff:     -0.131D-03 0.898D-02 0.521D-02 0.189D-01 0.719D-01 0.480D+00
 Coeff:      0.415D+00
 Gap=     0.126 Goal=   None    Shift=    0.000
 RMSDP=1.87D-06 MaxDP=7.55D-05 DE=-2.23D-08 OVMax= 2.18D-04

 Cycle   8  Pass 1  IDiag  1:
 RMSU=  9.49D-07    CP:  9.99D-01  8.76D-01  4.37D-01  3.89D-01  6.85D-01
                    CP:  1.01D+00  4.11D-01
 E= -7517.82058403886     Delta-E=       -0.000000314021 Rises=F Damp=F
 DIIS: error= 7.27D-06 at cycle   8 NSaved=   8.
 NSaved= 8 IEnMin= 8 EnMin= -7517.82058403886     IErMin= 8 ErrMin= 7.27D-06
 ErrMax= 7.27D-06  0.00D+00 EMaxC= 1.00D-01 BMatC= 5.85D-08 BMatP= 3.03D-07
 IDIUse=1 WtCom= 1.00D+00 WtEn= 0.00D+00
 Coeff-Com:  0.516D-05-0.140D-01-0.584D-02-0.887D-02-0.524D-03 0.242D+00
 Coeff-Com:  0.340D+00 0.446D+00
 Coeff:      0.516D-05-0.140D-01-0.584D-02-0.887D-02-0.524D-03 0.242D+00
 Coeff:      0.340D+00 0.446D+00
 Gap=     0.126 Goal=   None    Shift=    0.000
 RMSDP=7.33D-07 MaxDP=4.32D-05 DE=-3.14D-07 OVMax= 7.64D-05

 Cycle   9  Pass 1  IDiag  1:
 RMSU=  2.63D-07    CP:  9.99D-01  8.76D-01  4.38D-01  3.91D-01  6.92D-01
                    CP:  1.05D+00  5.83D-01  4.85D-01
 E= -7517.82058410792     Delta-E=       -0.000000069067 Rises=F Damp=F
 DIIS: error= 1.41D-06 at cycle   9 NSaved=   9.
 NSaved= 9 IEnMin= 9 EnMin= -7517.82058410792     IErMin= 9 ErrMin= 1.41D-06
 ErrMax= 1.41D-06  0.00D+00 EMaxC= 1.00D-01 BMatC= 3.41D-09 BMatP= 5.85D-08
 IDIUse=1 WtCom= 1.00D+00 WtEn= 0.00D+00
 Coeff-Com:  0.200D-04-0.100D-01-0.425D-02-0.772D-02-0.104D-01 0.965D-01
 Coeff-Com:  0.170D+00 0.270D+00 0.496D+00
 Coeff:      0.200D-04-0.100D-01-0.425D-02-0.772D-02-0.104D-01 0.965D-01
 Coeff:      0.170D+00 0.270D+00 0.496D+00
 Gap=     0.126 Goal=   None    Shift=    0.000
 RMSDP=1.99D-07 MaxDP=9.05D-06 DE=-6.91D-08 OVMax= 2.83D-05

 Cycle  10  Pass 1  IDiag  1:
 RMSU=  1.28D-07    CP:  9.99D-01  8.76D-01  4.38D-01  3.93D-01  6.97D-01
                    CP:  1.05D+00  5.92D-01  5.66D-01  7.43D-01
 E= -7517.82058411061     Delta-E=       -0.000000002688 Rises=F Damp=F
 DIIS: error= 7.27D-07 at cycle  10 NSaved=  10.
 NSaved=10 IEnMin=10 EnMin= -7517.82058411061     IErMin=10 ErrMin= 7.27D-07
 ErrMax= 7.27D-07  0.00D+00 EMaxC= 1.00D-01 BMatC= 5.82D-10 BMatP= 3.41D-09
 IDIUse=1 WtCom= 1.00D+00 WtEn= 0.00D+00
 Coeff-Com:  0.131D-04-0.559D-02-0.234D-02-0.444D-02-0.723D-02 0.447D-01
 Coeff-Com:  0.864D-01 0.146D+00 0.342D+00 0.401D+00
 Coeff:      0.131D-04-0.559D-02-0.234D-02-0.444D-02-0.723D-02 0.447D-01
 Coeff:      0.864D-01 0.146D+00 0.342D+00 0.401D+00
 Gap=     0.126 Goal=   None    Shift=    0.000
 RMSDP=1.02D-07 MaxDP=4.04D-06 DE=-2.69D-09 OVMax= 1.30D-05

 Cycle  11  Pass 1  IDiag  1:
 RMSU=  6.41D-08    CP:  9.99D-01  8.76D-01  4.38D-01  3.93D-01  6.97D-01
                    CP:  1.06D+00  5.93D-01  5.66D-01  8.79D-01  4.78D-01
 E= -7517.82058411126     Delta-E=       -0.000000000648 Rises=F Damp=F
 DIIS: error= 4.04D-07 at cycle  11 NSaved=  11.
 NSaved=11 IEnMin=11 EnMin= -7517.82058411126     IErMin=11 ErrMin= 4.04D-07
 ErrMax= 4.04D-07  0.00D+00 EMaxC= 1.00D-01 BMatC= 1.95D-10 BMatP= 5.82D-10
 IDIUse=1 WtCom= 1.00D+00 WtEn= 0.00D+00
 Coeff-Com:  0.113D-05 0.135D-03 0.108D-03-0.181D-04-0.121D-02-0.893D-02
 Coeff-Com: -0.944D-02-0.649D-02 0.561D-01 0.381D+00 0.588D+00
 Coeff:      0.113D-05 0.135D-03 0.108D-03-0.181D-04-0.121D-02-0.893D-02
 Coeff:     -0.944D-02-0.649D-02 0.561D-01 0.381D+00 0.588D+00
 Gap=     0.126 Goal=   None    Shift=    0.000
 RMSDP=5.03D-08 MaxDP=2.16D-06 DE=-6.48D-10 OVMax= 7.13D-06

 Cycle  12  Pass 1  IDiag  1:
 RMSU=  1.80D-08    CP:  9.99D-01  8.76D-01  4.38D-01  3.93D-01  6.98D-01
                    CP:  1.06D+00  5.98D-01  5.71D-01  9.02D-01  7.56D-01
                    CP:  7.10D-01
 E= -7517.82058411171     Delta-E=       -0.000000000447 Rises=F Damp=F
 DIIS: error= 6.94D-08 at cycle  12 NSaved=  12.
 NSaved=12 IEnMin=12 EnMin= -7517.82058411171     IErMin=12 ErrMin= 6.94D-08
 ErrMax= 6.94D-08  0.00D+00 EMaxC= 1.00D-01 BMatC= 8.25D-12 BMatP= 1.95D-10
 IDIUse=1 WtCom= 1.00D+00 WtEn= 0.00D+00
 Coeff-Com: -0.521D-06 0.522D-03 0.248D-03 0.338D-03 0.190D-04-0.801D-02
 Coeff-Com: -0.120D-01-0.151D-01 0.742D-03 0.169D+00 0.316D+00 0.549D+00
 Coeff:     -0.521D-06 0.522D-03 0.248D-03 0.338D-03 0.190D-04-0.801D-02
 Coeff:     -0.120D-01-0.151D-01 0.742D-03 0.169D+00 0.316D+00 0.549D+00
 Gap=     0.126 Goal=   None    Shift=    0.000
 RMSDP=1.08D-08 MaxDP=6.36D-07 DE=-4.47D-10 OVMax= 1.67D-06

 Cycle  13  Pass 1  IDiag  1:
 RMSU=  6.58D-09    CP:  9.99D-01  8.76D-01  4.38D-01  3.93D-01  6.98D-01
                    CP:  1.06D+00  5.98D-01  5.75D-01  9.11D-01  7.72D-01
                    CP:  7.82D-01  7.55D-01
 E= -7517.82058411178     Delta-E=       -0.000000000076 Rises=F Damp=F
 DIIS: error= 2.23D-08 at cycle  13 NSaved=  13.
 NSaved=13 IEnMin=13 EnMin= -7517.82058411178     IErMin=13 ErrMin= 2.23D-08
 ErrMax= 2.23D-08  0.00D+00 EMaxC= 1.00D-01 BMatC= 9.80D-13 BMatP= 8.25D-12
 IDIUse=1 WtCom= 1.00D+00 WtEn= 0.00D+00
 Coeff-Com: -0.402D-06 0.259D-03 0.117D-03 0.177D-03 0.187D-03-0.309D-02
 Coeff-Com: -0.517D-02-0.748D-02-0.751D-02 0.380D-01 0.939D-01 0.303D+00
 Coeff-Com:  0.588D+00
 Coeff:     -0.402D-06 0.259D-03 0.117D-03 0.177D-03 0.187D-03-0.309D-02
 Coeff:     -0.517D-02-0.748D-02-0.751D-02 0.380D-01 0.939D-01 0.303D+00
 Coeff:      0.588D+00
 Gap=     0.126 Goal=   None    Shift=    0.000
 RMSDP=4.02D-09 MaxDP=2.42D-07 DE=-7.64D-11 OVMax= 5.10D-07

 SCF Done:  E(RPBE1PBE) =  -7517.82058411     A.U. after   13 cycles
            NFock= 13  Conv=0.40D-08     -V/T= 2.1284
 KE= 6.662169654845D+03 PE=-2.478347568056D+04 EE= 7.007379447650D+03
 Leave Link  502 at Tue Mar  6 12:23:15 2018, MaxMem=   536870912 cpu:      2276.6
 (Enter /share/apps//mg09/l701.exe)
 Compute integral first derivatives.
 ... and contract with generalized density number  0.
   1 Symmetry operations used in ECPInt.
 ECPInt:  NShTT=   10440 NPrTT=   41973 LenC2=    9699 LenP2D=   27612.
 LDataN:  DoStor=T MaxTD1= 9 Len=  602
 Leave Link  701 at Tue Mar  6 12:23:32 2018, MaxMem=   536870912 cpu:        68.7
 (Enter /share/apps//mg09/l702.exe)
 L702 exits ... SP integral derivatives will be done elsewhere.
 Leave Link  702 at Tue Mar  6 12:23:32 2018, MaxMem=   536870912 cpu:         0.1
 (Enter /share/apps//mg09/l703.exe)
 Compute integral first derivatives, UseDBF=F ICtDFT=           0.
 Integral derivatives from FoFJK, PRISM(SPDF).
 Calling FoFJK, ICntrl=      2127 FMM=F ISym2X=0 I1Cent= 0 IOpClX= 0 NMat=1 NMatS=1 NMatT=0.
 FoFJK:  IHMeth= 1 ICntrl=    2127 DoSepK=F KAlg= 0 I1Cent=   0 FoldK=F
 IRaf=         0 NMat=   1 IRICut=       1 DoRegI=T DoRafI=F ISym2E= 0.
 FoFCou: FMM=F IPFlag=           0 FMFlag=      100000 FMFlg1=         800
         NFxFlg=           0 DoJE=F BraDBF=F KetDBF=F FulRan=T
         wScrn=  0.000000 ICntrl=    2127 IOpCl=  0 I1Cent=           0 NGrid=           0
         NMat0=    1 NMatS0=      1 NMatT0=    0 NMatD0=    1 NMtDS0=    0 NMtDT0=    0
 Symmetry not used in FoFCou.
 Defaulting to unpruned grid for atomic number  83.
 Defaulting to unpruned grid for atomic number  83.
 Defaulting to unpruned grid for atomic number  83.
 Defaulting to unpruned grid for atomic number  83.
 Leave Link  703 at Tue Mar  6 12:26:50 2018, MaxMem=   536870912 cpu:       786.4
 (Enter /share/apps//mg09/l716.exe)
 Dipole        =-6.42630116D-03-1.35051526D-01-2.68140010D-01
 ***** Axes restored to original set *****
 -------------------------------------------------------------------
 Center     Atomic                   Forces (Hartrees/Bohr)
 Number     Number              X              Y              Z
 -------------------------------------------------------------------
      1       83           0.002941067    0.000381912   -0.000975565
      2       32          -0.002366205    0.005952837    0.003738901
      3       83          -0.001621682   -0.000073264   -0.000604282
      4       32           0.003379305   -0.003832908    0.005768446
      5       83          -0.003869171    0.000615084   -0.000063104
      6       32          -0.001026131   -0.007025118   -0.001641612
      7       83           0.003099131    0.000869029   -0.000106029
      8       50          -0.002658546   -0.000694570   -0.004994642
      9       50           0.002122233    0.003806997   -0.001122112
 -------------------------------------------------------------------
 Cartesian Forces:  Max     0.007025118 RMS     0.003095548
 Leave Link  716 at Tue Mar  6 12:26:50 2018, MaxMem=   536870912 cpu:         0.1
 (Enter /share/apps//mg09/l103.exe)

 GradGradGradGradGradGradGradGradGradGradGradGradGradGradGradGradGradGrad
 Berny optimization.
 Search for a local minimum.
 Step number   2 out of a maximum of  100
 All quantities printed in internal units (Hartrees-Bohrs-Radians)
 Update second derivatives using D2CorN and points    1    2
 DE= -5.22D-03 DEPred=-3.82D-03 R= 1.37D+00
 TightC=F SS=  1.41D+00  RLast= 2.11D-01 DXNew= 5.0454D-01 6.3196D-01
 Trust test= 1.37D+00 RLast= 2.11D-01 DXMaxT set to 5.05D-01
 ITU=  1  0
     Eigenvalues ---    0.07871   0.09557   0.11941   0.12085   0.12618
     Eigenvalues ---    0.13658   0.14370   0.15286   0.15899   0.16763
     Eigenvalues ---    0.17410   0.22627   0.22961   0.23680   0.24468
     Eigenvalues ---    0.24710   0.26845   0.29050   0.29954   0.31916
     Eigenvalues ---    0.32029
 RFO step:  Lambda=-3.56146589D-04 EMin= 7.87118958D-02
 Quartic linear search produced a step of  0.62704.
 TrRot=  0.000044  0.000045 -0.000103  1.554790 -0.000117 -1.554744
 Variable       Old X    -DE/DX   Delta X   Delta X   Delta X     New X
                                 (Linear)    (Quad)   (Total)
    X1       -3.76657   0.00294   0.03188  -0.00017   0.03185  -3.73472
    Y1       -1.92309   0.00038   0.01443  -0.01070   0.00388  -1.91921
    Z1       -2.33740  -0.00098   0.01821  -0.01115   0.00673  -2.33067
    X2        1.29285  -0.00237  -0.01331  -0.00056  -0.01372   1.27914
    Y2       -2.26347   0.00595   0.03390   0.01941   0.05389  -2.20959
    Z2       -4.01506   0.00374   0.03134  -0.00299   0.02799  -3.98707
    X3        3.33103  -0.00162  -0.02928   0.00193  -0.02716   3.30387
    Y3       -3.15534  -0.00007   0.02335  -0.01903   0.00439  -3.15095
    Z3        1.00628  -0.00060  -0.01175  -0.00093  -0.01315   0.99314
    X4       -1.02668   0.00338   0.01662   0.00543   0.02198  -1.00469
    Y4        2.53519  -0.00383  -0.02085  -0.00664  -0.02704   2.50815
    Z4       -3.89733   0.00577   0.03654   0.00738   0.04411  -3.85322
    X5        4.00787  -0.00387  -0.03154   0.00390  -0.02768   3.98020
    Y5        1.80479   0.00062  -0.01194   0.00750  -0.00402   1.80078
    Z5       -1.62862  -0.00006   0.01336  -0.00263   0.01085  -1.61776
    X6        0.45630  -0.00103  -0.00593  -0.00368  -0.00981   0.44650
    Y6        5.27669  -0.00703  -0.05196  -0.00833  -0.06025   5.21645
    Z6        0.26039  -0.00164  -0.00904  -0.00623  -0.01476   0.24563
    X7       -3.64020   0.00310   0.03033  -0.00471   0.02557  -3.61463
    Y7        2.18522   0.00087  -0.01535   0.00983  -0.00583   2.17939
    Z7        1.59127  -0.00011  -0.01210   0.00484  -0.00711   1.58416
    X8        1.62805  -0.00266  -0.01923  -0.00034  -0.01959   1.60845
    Y8        1.45221  -0.00069  -0.00780   0.00046  -0.00770   1.44451
    Z8        4.14759  -0.00499  -0.04292  -0.00357  -0.04642   4.10117
    X9       -1.97479   0.00212   0.02046  -0.00209   0.01855  -1.95624
    Y9       -3.16303   0.00381   0.03621   0.00686   0.04267  -3.12036
    Z9        2.99569  -0.00112  -0.02365   0.01587  -0.00825   2.98744
         Item               Value     Threshold  Converged?
 Maximum Force            0.007025     0.000450     NO 
 RMS     Force            0.003096     0.000300     NO 
 Maximum Displacement     0.060247     0.001800     NO 
[...]
     X       X X                 X   X XX              X                                          X                                  
     X       X                   X   X X               X                                                                             
     X       X                   X   X X                                                                                             
     X       X                   X   X X                                                                                             
     X       X                   X   X X                                                                                             
     X                           X   X X                                                                                             
     X                                 X                                                                                             
     X                                 X                                                                                             
     X                                 X                                                                                             
                                       X                                                                                             
                                       X                                                                                             
                                       X                                                                                             
                                       X                                                                                             
 
 ***** Axes restored to original set *****
 -------------------------------------------------------------------
 Center     Atomic                   Forces (Hartrees/Bohr)
 Number     Number              X              Y              Z
 -------------------------------------------------------------------
      1       83           0.000008302    0.000014206   -0.000007321
      2       32           0.000007284    0.000026482    0.000000245
      3       83           0.000021648    0.000001175   -0.000003674
      4       32          -0.000034719    0.000002181   -0.000004627
      5       83           0.000002108   -0.000024250    0.000002447
      6       32          -0.000005657   -0.000012185    0.000001925
      7       83          -0.000022522   -0.000017910   -0.000000074
      8       50           0.000041008   -0.000000375   -0.000010118
      9       50          -0.000017452    0.000010676    0.000021196
 -------------------------------------------------------------------
 Cartesian Forces:  Max     0.000041008 RMS     0.000016166
 Force constants in Cartesian coordinates: 
                1             2             3             4             5 
      1  0.697768D-01
      2  0.182546D-01  0.563836D-01
      3  0.378080D-03  0.144712D-01  0.652831D-01
      4 -0.417491D-01 -0.401386D-03  0.150965D-01  0.660518D-01
      5 -0.232382D-02 -0.265194D-02 -0.346706D-02 -0.203462D-03  0.489006D-01
      6  0.973642D-02 -0.364460D-02 -0.356634D-02  0.135134D-02  0.198327D-01
      7 -0.490220D-02  0.492109D-02 -0.181040D-02 -0.482543D-02  0.427421D-02
      8 -0.225605D-02  0.180909D-02 -0.736809D-03  0.448145D-02 -0.556102D-02
      9 -0.104490D-02  0.273890D-02 -0.423568D-02 -0.112356D-01  0.312161D-02
     10 -0.846845D-02 -0.163283D-01  0.148587D-02 -0.112487D-02  0.102174D-01
     11 -0.131261D-01 -0.217740D-01  0.852381D-02  0.908272D-02 -0.169340D-01
     12  0.292960D-02  0.964415D-02 -0.593518D-02 -0.172557D-02 -0.272495D-02
     13 -0.431092D-02 -0.375891D-03  0.131997D-02 -0.143392D-01 -0.122840D-01
     14 -0.855980D-03 -0.293021D-02  0.146724D-02 -0.144171D-01 -0.172463D-01
     15 -0.227377D-02  0.923568D-03  0.392548D-04 -0.674951D-02 -0.163652D-01
     16 -0.229988D-03 -0.535966D-02 -0.122852D-02 -0.275054D-02  0.203879D-02
     17  0.303758D-03 -0.311756D-02 -0.810307D-03 -0.701836D-03 -0.348352D-02
     18  0.353382D-03 -0.229725D-02 -0.451954D-03 -0.256259D-02 -0.275531D-02
     19 -0.485119D-02 -0.103636D-02  0.172821D-02 -0.131769D-03  0.153883D-02
     20 -0.838528D-03 -0.215711D-01 -0.225415D-01  0.576363D-02 -0.333059D-02
     21  0.329905D-03 -0.254181D-01 -0.210739D-01  0.745441D-02 -0.115879D-02
     22 -0.978548D-03  0.115715D-02 -0.593767D-02  0.828226D-04 -0.207734D-02
     23  0.172060D-02 -0.232088D-02 -0.294329D-02 -0.485109D-02 -0.874461D-03
     24  0.445744D-04 -0.781278D-03 -0.171902D-02 -0.182132D-02 -0.378293D-04
     25 -0.428644D-02 -0.831152D-03 -0.110321D-01 -0.121377D-02 -0.118057D-02
     26 -0.878443D-03 -0.382705D-02  0.603670D-02  0.124710D-02  0.118129D-02
     27 -0.104533D-01  0.436344D-02 -0.283402D-01  0.192315D-03  0.355479D-02
                6             7             8             9            10 
      6  0.546858D-01
      7 -0.923313D-02  0.574707D-01
      8  0.490826D-02 -0.135262D-01  0.726349D-01
      9 -0.252714D-01 -0.691598D-02 -0.170439D-01  0.521391D-01
     10 -0.460185D-03 -0.341210D-02  0.502080D-03 -0.601161D-02  0.439160D-01
     11  0.151645D-03 -0.161353D-02 -0.424569D-02  0.434983D-02  0.417402D-02
     12 -0.408504D-02 -0.540421D-03  0.105947D-02 -0.121045D-02  0.146230D-01
     13 -0.575831D-02 -0.472618D-02 -0.452882D-02  0.656317D-02 -0.242616D-01
     14 -0.137590D-01 -0.452104D-02 -0.372958D-01  0.200532D-01  0.177469D-02
     15 -0.596786D-02  0.576596D-02  0.214821D-01 -0.823246D-02 -0.139888D-01
     16 -0.623928D-03  0.128790D-02  0.461365D-02  0.309363D-03 -0.174209D-02
     17  0.618636D-03 -0.751828D-03 -0.360916D-02 -0.653810D-03 -0.395633D-02
     18 -0.286893D-02  0.275678D-03  0.205328D-02  0.135376D-04 -0.543070D-02
     19  0.258527D-03 -0.290560D-02  0.100935D-03  0.147669D-02 -0.131992D-02
     20 -0.848891D-03  0.100549D-02 -0.163838D-02 -0.268732D-02  0.168331D-02
     21 -0.474430D-02 -0.296492D-02 -0.118064D-02  0.396402D-03  0.417799D-02
     22  0.463202D-02 -0.254279D-02  0.915091D-02  0.163571D-02 -0.442929D-02
     23 -0.487426D-02  0.650228D-02 -0.176545D-01 -0.105392D-01  0.203159D-02
     24 -0.542693D-02  0.201838D-02 -0.117050D-01 -0.107794D-01 -0.703777D-03
     25  0.972428D-04 -0.354443D-01  0.146207D-02  0.152232D-01  0.842292D-03
     26 -0.238450D-02  0.370955D-02 -0.443943D-02  0.660654D-03 -0.983858D-04
     27 -0.275498D-02  0.134048D-01  0.116329D-02 -0.281964D-02  0.630820D-02
               11            12            13            14            15 
     11  0.599954D-01
     12 -0.981966D-02  0.535670D-01
     13  0.433861D-03 -0.104069D-01  0.821285D-01
     14 -0.123403D-02  0.501371D-02  0.420762D-02  0.808675D-01
     15  0.501374D-02 -0.536275D-02 -0.945794D-02 -0.311908D-02  0.448569D-01
     16 -0.401019D-02 -0.577802D-02 -0.238462D-01  0.201301D-01  0.146007D-01
     17 -0.121505D-01 -0.965742D-02  0.167709D-01 -0.220061D-01 -0.874583D-02
     18 -0.126418D-01 -0.177040D-01  0.137997D-01 -0.109630D-01 -0.311429D-02
     19  0.106193D-02  0.192938D-02 -0.719595D-02  0.271670D-02  0.209815D-02
     20 -0.112199D-02  0.775956D-03 -0.109568D-02  0.711846D-03  0.289645D-03
     21  0.202131D-02 -0.812889D-02  0.205486D-03  0.208968D-03 -0.464673D-02
     22 -0.593933D-03 -0.828126D-03 -0.327376D-02 -0.277760D-02  0.537999D-02
     23  0.961498D-03  0.420795D-02 -0.170304D-02  0.917208D-03  0.673113D-04
     24 -0.203234D-02 -0.681514D-02  0.475423D-02  0.731502D-03 -0.142210D-01
     25  0.459122D-02 -0.202933D-03 -0.174712D-03 -0.625740D-02  0.462515D-02
     26 -0.349665D-02  0.150080D-02 -0.142493D-02 -0.178408D-02  0.453780D-03
     27  0.443348D-02 -0.432552D-02 -0.101943D-02  0.366464D-03 -0.335108D-02
               16            17            18            19            20 
     16  0.605819D-01
     17  0.310693D-02  0.787304D-01
     18 -0.143723D-01  0.639693D-02  0.392212D-01
     19 -0.308582D-01 -0.178443D-01  0.121025D-01  0.758832D-01
     20 -0.213900D-01 -0.186595D-01  0.768569D-02 -0.426701D-04  0.741376D-01
     21  0.122901D-01  0.568739D-02 -0.167303D-02 -0.925213D-02  0.105292D-01
     22 -0.435412D-04  0.277294D-02 -0.301519D-02 -0.214696D-01  0.420668D-02
     23  0.253165D-02 -0.133509D-01  0.984047D-02  0.501567D-02 -0.719671D-03
     24 -0.405019D-02  0.848144D-02 -0.119691D-01 -0.991739D-02 -0.170337D-02
     25 -0.239928D-02  0.299716D-03 -0.115043D-02 -0.715089D-02  0.107078D-01
     26 -0.166129D-02 -0.235311D-02  0.268103D-02  0.848921D-02 -0.278081D-01
     27 -0.114725D-02 -0.131702D-02 -0.145351D-02 -0.423888D-03  0.850060D-02
               21            22            23            24            25 
     21  0.446710D-01
     22 -0.118984D-01  0.383088D-01
     23 -0.886047D-03 -0.949828D-03  0.442289D-01
     24 -0.569891D-02  0.133372D-01  0.759486D-02  0.592545D-01
     25 -0.342437D-03 -0.565401D-02 -0.102978D-01 -0.366166D-02  0.554811D-01
     26  0.101968D-01 -0.108890D-01 -0.111872D-01 -0.547939D-03  0.150615D-02
     27  0.898381D-03 -0.330547D-02 -0.246775D-02 -0.262503D-02 -0.355602D-02
               26            27 
     26  0.537144D-01
     27 -0.185973D-01  0.447716D-01
 Leave Link  716 at Tue Mar  6 15:43:52 2018, MaxMem=   536870912 cpu:         0.1
 (Enter /share/apps//mg09/l103.exe)

 GradGradGradGradGradGradGradGradGradGradGradGradGradGradGradGradGradGrad
 Berny optimization.
 Search for a local minimum.
 Step number   1 out of a maximum of    2
 All quantities printed in internal units (Hartrees-Bohrs-Radians)
 Second derivative matrix not updated -- analytic derivatives used.
 ITU=  0
     Eigenvalues ---    0.00722   0.01324   0.03213   0.03582   0.04239
     Eigenvalues ---    0.04887   0.04961   0.05431   0.05706   0.05847
     Eigenvalues ---    0.06311   0.06656   0.08136   0.09064   0.09970
     Eigenvalues ---    0.11086   0.12001   0.12544   0.13017   0.14156
     Eigenvalues ---    0.14665
 Angle between quadratic step and forces=  52.67 degrees.
 Linear search not attempted -- first point.
 TrRot= -0.000003  0.000015 -0.000015  0.000004  0.000001  0.000004
 Variable       Old X    -DE/DX   Delta X   Delta X   Delta X     New X
                                 (Linear)    (Quad)   (Total)
    X1       -3.72578   0.00001   0.00000   0.00095   0.00096  -3.72482
    Y1       -1.95447   0.00001   0.00000  -0.00067  -0.00068  -1.95515
    Z1       -2.31975  -0.00001   0.00000   0.00003   0.00002  -2.31973
    X2        1.27787   0.00001   0.00000   0.00075   0.00076   1.27863
    Y2       -2.13558   0.00003   0.00000   0.00108   0.00111  -2.13447
    Z2       -4.01631   0.00000   0.00000  -0.00084  -0.00086  -4.01717
    X3        3.28154   0.00002   0.00000  -0.00085  -0.00082   3.28072
    Y3       -3.19572   0.00000   0.00000  -0.00065  -0.00061  -3.19633
    Z3        0.96193   0.00000   0.00000  -0.00026  -0.00027   0.96166
    X4       -0.99261  -0.00003   0.00000  -0.00084  -0.00087  -0.99348
    Y4        2.47207   0.00000   0.00000   0.00011   0.00012   2.47219
    Z4       -3.82864   0.00000   0.00000   0.00024   0.00023  -3.82841
    X5        4.01869   0.00000   0.00000   0.00024   0.00022   4.01891
    Y5        1.80951  -0.00002   0.00000  -0.00042  -0.00037   1.80913
    Z5       -1.56717   0.00000   0.00000   0.00061   0.00059  -1.56657
    X6        0.42396  -0.00001   0.00000  -0.00014  -0.00019   0.42377
    Y6        5.20789  -0.00001   0.00000  -0.00029  -0.00027   5.20762
    Z6        0.21443   0.00000   0.00000  -0.00001  -0.00003   0.21440
    X7       -3.64018  -0.00002   0.00000  -0.00043  -0.00044  -3.64063
    Y7        2.19671  -0.00002   0.00000  -0.00021  -0.00022   2.19648
    Z7        1.58026   0.00000   0.00000  -0.00057  -0.00058   1.57968
    X8        1.62206   0.00004   0.00000   0.00113   0.00112   1.62318
    Y8        1.43685   0.00000   0.00000  -0.00001   0.00002   1.43687
    Z8        4.06755  -0.00001   0.00000  -0.00052  -0.00054   4.06702
    X9       -1.95769  -0.00002   0.00000  -0.00075  -0.00073  -1.95842
    Y9       -3.08809   0.00001   0.00000   0.00091   0.00091  -3.08718
    Z9        3.03051   0.00002   0.00000   0.00145   0.00143   3.03194
         Item               Value     Threshold  Converged?
 Maximum Force            0.000041     0.000450     YES
 RMS     Force            0.000016     0.000300     YES
 Maximum Displacement     0.001435     0.001800     YES
 RMS     Displacement     0.000668     0.001200     YES
 Predicted change in Energy=-8.926224D-08
 Optimization completed.
    -- Stationary point found.
 GradGradGradGradGradGradGradGradGradGradGradGradGradGradGradGradGradGrad

 Leave Link  103 at Tue Mar  6 15:43:52 2018, MaxMem=   536870912 cpu:         0.1
 (Enter /share/apps//mg09/l9999.exe)
 1\1\GINC-COMPUTE-0-5\Freq\RPBE1PBE\def2TZVP\Bi4Ge3Sn2\RODRIGO\06-Mar-2
 018\0\\#P Geom=AllCheck Guess=TCheck SCRF=Check GenChk RPBE1PBE/def2TZ
 VP Freq\\01Final_coords.xyz_13\\0,1\Bi,-1.971596705,-1.0342592113,-1.2
 275612231\Ge,0.6762210752,-1.1300980768,-2.1253384755\Bi,1.7365185548,
 -1.6911003194,0.5090324095\Ge,-0.525267076,1.3081637179,-2.0260296056\
 Bi,2.1266010275,0.9575508597,-0.8293088685\Ge,0.2243477521,2.755894948
 4,0.1134713917\Bi,-1.9263022066,1.1624467982,0.8362373273\Sn,0.8583580
 719,0.7603474503,2.1524568069\Sn,-1.0359674941,-1.6341491669,1.6036742
 376\\Version=ES64L-G09RevD.01\State=1-A\HF=-7517.8221272\RMSD=8.077e-0
 9\RMSF=1.617e-05\ZeroPoint=0.0057981\Thermal=0.0232874\Dipole=0.015421
 ,-0.1369858,0.2751287\DipoleDeriv=0.0141456,0.0648528,0.1440646,-0.039
 0933,-0.115455,0.0352799,0.0540483,0.0301202,-0.1356437,-0.1312315,-0.
 0454206,-0.1176086,0.0117088,-0.0489041,0.0481964,-0.036653,-0.0180493
 ,0.0661336,-0.0270353,-0.1539307,0.0943651,-0.041983,-0.0889521,0.0037
 527,0.0536345,0.0073547,-0.2099698,0.0524367,-0.0387554,0.0355787,-0.0
 008058,-0.0234973,-0.0431256,-0.0401372,0.0197909,-0.0059689,0.1136829
 ,0.0785323,-0.0634632,0.0090404,-0.0189217,-0.034368,0.0170027,-0.0134
 88,0.0647613,-0.1861567,0.0334113,-0.0106813,0.0165438,0.1952925,-0.02
 43033,-0.0021513,0.0472442,-0.1864932,0.054191,-0.1164935,-0.0379362,-
 0.0519496,-0.0506458,0.0214343,0.0169073,-0.0282647,0.0269809,0.119067
 7,0.0488932,0.1045981,0.0257519,0.0331727,0.0949426,0.0619387,0.082555
 1,0.24428,-0.0091005,0.1289107,-0.1489172,0.0707866,0.1179109,-0.10180
 91,-0.12459,-0.1272632,0.1359198\Polar=379.1884402,5.1290204,377.78202
 37,0.9797793,-3.4772733,374.9655326\PG=C01 [X(Bi4Ge3Sn2)]\NImag=0\\0.0
 6977682,0.01825456,0.05638363,0.00037808,0.01447121,0.06528305,-0.0417
 4908,-0.00040139,0.01509652,0.06605185,-0.00232382,-0.00265194,-0.0034
 6706,-0.00020346,0.04890056,0.00973642,-0.00364460,-0.00356634,0.00135
 134,0.01983272,0.05468578,-0.00490220,0.00492109,-0.00181040,-0.004825
 43,0.00427421,-0.00923313,0.05747067,-0.00225605,0.00180909,-0.0007368
 1,0.00448145,-0.00556102,0.00490826,-0.01352621,0.07263494,-0.00104490
 ,0.00273890,-0.00423568,-0.01123560,0.00312161,-0.02527139,-0.00691598
 ,-0.01704386,0.05213910,-0.00846845,-0.01632835,0.00148587,-0.00112487
 ,0.01021737,-0.00046018,-0.00341210,0.00050208,-0.00601161,0.04391602,
 -0.01312610,-0.02177398,0.00852381,0.00908272,-0.01693403,0.00015164,-
 0.00161353,-0.00424569,0.00434983,0.00417402,0.05999539,0.00292960,0.0
 0964415,-0.00593518,-0.00172557,-0.00272495,-0.00408504,-0.00054042,0.
 00105947,-0.00121045,0.01462296,-0.00981966,0.05356696,-0.00431092,-0.
 00037589,0.00131997,-0.01433921,-0.01228402,-0.00575831,-0.00472618,-0
 .00452882,0.00656317,-0.02426158,0.00043386,-0.01040687,0.08212847,-0.
 00085598,-0.00293021,0.00146724,-0.01441712,-0.01724628,-0.01375900,-0
 .00452104,-0.03729584,0.02005323,0.00177469,-0.00123403,0.00501371,0.0
 0420762,0.08086747,-0.00227377,0.00092357,0.00003925,-0.00674951,-0.01
 636518,-0.00596786,0.00576596,0.02148205,-0.00823246,-0.01398876,0.005
 01374,-0.00536275,-0.00945794,-0.00311908,0.04485689,-0.00022999,-0.00
 535966,-0.00122852,-0.00275054,0.00203879,-0.00062393,0.00128790,0.004
 61365,0.00030936,-0.00174209,-0.00401019,-0.00577802,-0.02384617,0.020
 13013,0.01460072,0.06058194,0.00030376,-0.00311756,-0.00081031,-0.0007
 0184,-0.00348352,0.00061864,-0.00075183,-0.00360916,-0.00065381,-0.003
 95633,-0.01215052,-0.00965742,0.01677090,-0.02200610,-0.00874583,0.003
 10693,0.07873036,0.00035338,-0.00229725,-0.00045195,-0.00256259,-0.002
 75531,-0.00286893,0.00027568,0.00205328,0.00001354,-0.00543070,-0.0126
 4180,-0.01770399,0.01379970,-0.01096303,-0.00311429,-0.01437232,0.0063
 9693,0.03922123,-0.00485119,-0.00103636,0.00172821,-0.00013177,0.00153
 883,0.00025853,-0.00290560,0.00010093,0.00147669,-0.00131992,0.0010619
 3,0.00192938,-0.00719595,0.00271670,0.00209815,-0.03085823,-0.01784426
 ,0.01210246,0.07588319,-0.00083853,-0.02157110,-0.02254149,0.00576363,
 -0.00333059,-0.00084889,0.00100549,-0.00163838,-0.00268732,0.00168331,
 -0.00112199,0.00077596,-0.00109568,0.00071185,0.00028965,-0.02139002,-
 0.01865953,0.00768569,-0.00004267,0.07413756,0.00032990,-0.02541812,-0
 .02107393,0.00745441,-0.00115879,-0.00474430,-0.00296492,-0.00118064,0
 .00039640,0.00417799,0.00202131,-0.00812889,0.00020549,0.00020897,-0.0
 0464673,0.01229014,0.00568739,-0.00167303,-0.00925213,0.01052917,0.044
 67101,-0.00097855,0.00115715,-0.00593767,0.00008282,-0.00207734,0.0046
 3202,-0.00254279,0.00915091,0.00163571,-0.00442929,-0.00059393,-0.0008
 2813,-0.00327376,-0.00277760,0.00537999,-0.00004354,0.00277294,-0.0030
 1519,-0.02146964,0.00420668,-0.01189844,0.03830875,0.00172060,-0.00232
 088,-0.00294329,-0.00485109,-0.00087446,-0.00487426,0.00650228,-0.0176
 5451,-0.01053924,0.00203159,0.00096150,0.00420795,-0.00170304,0.000917
 21,0.00006731,0.00253165,-0.01335087,0.00984047,0.00501567,-0.00071967
 ,-0.00088605,-0.00094983,0.04422891,0.00004457,-0.00078128,-0.00171902
 ,-0.00182132,-0.00003783,-0.00542693,0.00201838,-0.01170504,-0.0107794
 2,-0.00070378,-0.00203234,-0.00681514,0.00475423,0.00073150,-0.0142209
 7,-0.00405019,0.00848144,-0.01196906,-0.00991739,-0.00170337,-0.005698
 91,0.01333716,0.00759486,0.05925448,-0.00428644,-0.00083115,-0.0110320
 6,-0.00121377,-0.00118057,0.00009724,-0.03544426,0.00146207,0.01522315
 ,0.00084229,0.00459122,-0.00020293,-0.00017471,-0.00625740,0.00462515,
 -0.00239928,0.00029972,-0.00115043,-0.00715089,0.01070779,-0.00034244,
 -0.00565401,-0.01029784,-0.00366166,0.05548106,-0.00087844,-0.00382705
 ,0.00603670,0.00124710,0.00118129,-0.00238450,0.00370955,-0.00443943,0
 .00066065,-0.00009839,-0.00349665,0.00150080,-0.00142493,-0.00178408,0
 .00045378,-0.00166129,-0.00235311,0.00268103,0.00848921,-0.02780814,0.
 01019677,-0.01088897,-0.01118722,-0.00054794,0.00150615,0.05371439,-0.
 01045329,0.00436344,-0.02834020,0.00019232,0.00355479,-0.00275498,0.01
 340482,0.00116329,-0.00281964,0.00630820,0.00443348,-0.00432552,-0.001
 01943,0.00036646,-0.00335108,-0.00114725,-0.00131702,-0.00145351,-0.00
 042389,0.00850060,0.00089838,-0.00330547,-0.00246775,-0.00262503,-0.00
 355602,-0.01859729,0.04477158\\-0.00000830,-0.00001421,0.00000732,-0.0
 0000728,-0.00002648,-0.00000025,-0.00002165,-0.00000118,0.00000367,0.0
 0003472,-0.00000218,0.00000463,-0.00000211,0.00002425,-0.00000245,0.00
 000566,0.00001218,-0.00000193,0.00002252,0.00001791,0.00000007,-0.0000
 4101,0.00000038,0.00001012,0.00001745,-0.00001068,-0.00002120\\\@


 WE MIGHT AS WELL ATTEMPT TO INTRODUCE A NEW PLANET 
 INTO THE SOLAR SYSTEM, OR TO ANNIHILATE ONE ALREADYIN EXISTENCE, 
 AS TO CREATE OR DESTROY A PARTICLE OF HYDROGEN.
 ALL THE CHANGES WE CAN PRODUCE CONSIST IN SEPARATING PARTICLES
 THAT ARE IN A STATE OF ... COMBINATION, AND JOINING 
 THOSE THAT WERE PREVIOUSLY AT A DISTANCE.

                                    -- JOHN DALTON, 1810
 Job cpu time:       0 days  3 hours 50 minutes 31.0 seconds.
 File lengths (MBytes):  RWF=    299 Int=      0 D2E=      0 Chk=     16 Scr=      1
 Normal termination of Gaussian 09 at Tue Mar  6 15:43:54 2018.
