 Entering Gaussian System, Link 0=/share/apps/mg09/g09
 Initial command:
 /share/apps//mg09/l1.exe "/state/partition1/gauss_tmp/Gau-23149.inp" -scrdir="/state/partition1/gauss_tmp/"
 Entering Link 1 = /share/apps//mg09/l1.exe PID=     23151.
  
 Copyright (c) 1988,1990,1992,1993,1995,1998,2003,2009,2013,
            Gaussian, Inc.  All Rights Reserved.
  
 This is part of the Gaussian(R) 09 program.  It is based on
 the Gaussian(R) 03 system (copyright 2003, Gaussian, Inc.),
 the Gaussian(R) 98 system (copyright 1998, Gaussian, Inc.),
 the Gaussian(R) 94 system (copyright 1995, Gaussian, Inc.),
 the Gaussian 92(TM) system (copyright 1992, Gaussian, Inc.),
 the Gaussian 90(TM) system (copyright 1990, Gaussian, Inc.),
 the Gaussian 88(TM) system (copyright 1988, Gaussian, Inc.),
 the Gaussian 86(TM) system (copyright 1986, Carnegie Mellon
 University), and the Gaussian 82(TM) system (copyright 1983,
 Carnegie Mellon University). Gaussian is a federally registered
 trademark of Gaussian, Inc.
  
 This software contains proprietary and confidential information,
 including trade secrets, belonging to Gaussian, Inc.
  
 This software is provided under written license and may be
 used, copied, transmitted, or stored only in accord with that
 written license.
  
 The following legend is applicable only to US Government
 contracts under FAR:
  
                    RESTRICTED RIGHTS LEGEND
  
 Use, reproduction and disclosure by the US Government is
 subject to restrictions as set forth in subparagraphs (a)
 and (c) of the Commercial Computer Software - Restricted
 Rights clause in FAR 52.227-19.
  
 Gaussian, Inc.
 340 Quinnipiac St., Bldg. 40, Wallingford CT 06492
  
  
 ---------------------------------------------------------------
 Warning -- This program may not be used in any manner that
 competes with the business of Gaussian, Inc. or will provide
 assistance to any competitor of Gaussian, Inc.  The licensee
 of this program is prohibited from giving any competitor of
 Gaussian, Inc. access to this program.  By using this program,
 the user acknowledges that Gaussian, Inc. is engaged in the
 business of creating and licensing software in the field of
 computational chemistry and represents and warrants to the
 licensee that it is not a competitor of Gaussian, Inc. and that
 it will not use this program in any manner prohibited above.
 ---------------------------------------------------------------
  

 Cite this work as:
 Gaussian 09, Revision D.01,
 M. J. Frisch, G. W. Trucks, H. B. Schlegel, G. E. Scuseria, 
 M. A. Robb, J. R. Cheeseman, G. Scalmani, V. Barone, B. Mennucci, 
 G. A. Petersson, H. Nakatsuji, M. Caricato, X. Li, H. P. Hratchian, 
 A. F. Izmaylov, J. Bloino, G. Zheng, J. L. Sonnenberg, M. Hada, 
 M. Ehara, K. Toyota, R. Fukuda, J. Hasegawa, M. Ishida, T. Nakajima, 
 Y. Honda, O. Kitao, H. Nakai, T. Vreven, J. A. Montgomery, Jr., 
 J. E. Peralta, F. Ogliaro, M. Bearpark, J. J. Heyd, E. Brothers, 
 K. N. Kudin, V. N. Staroverov, T. Keith, R. Kobayashi, J. Normand, 
 K. Raghavachari, A. Rendell, J. C. Burant, S. S. Iyengar, J. Tomasi, 
 M. Cossi, N. Rega, J. M. Millam, M. Klene, J. E. Knox, J. B. Cross, 
 V. Bakken, C. Adamo, J. Jaramillo, R. Gomperts, R. E. Stratmann, 
 O. Yazyev, A. J. Austin, R. Cammi, C. Pomelli, J. W. Ochterski, 
 R. L. Martin, K. Morokuma, V. G. Zakrzewski, G. A. Voth, 
 P. Salvador, J. J. Dannenberg, S. Dapprich, A. D. Daniels, 
 O. Farkas, J. B. Foresman, J. V. Ortiz, J. Cioslowski, 
 and D. J. Fox, Gaussian, Inc., Wallingford CT, 2013.
 
 ******************************************
 Gaussian 09:  ES64L-G09RevD.01 24-Apr-2013
                 6-Mar-2018 
 ******************************************
 %NProcShared=4
 Will use up to    4 processors via shared memory.
 %LindaWorkers=compute-0-0
 %chk=Isomer_44.chk
 %NProc=4
 Will use up to    4 processors via shared memory.
 %mem=4GB
 SetLPE:  input flags=" -vv -opt "Tsnet.Node.lindarsharg: ssh" "
 SetLPE:    new flags=" -vv -opt "Tsnet.Node.lindarsharg: ssh"  -nodelist 'compute-0-0.local'"
 Will use up to    1 processors via Linda.
 ----------------------------------------------------------------------
 #p PBE1PBE/Def2TZVP scf=(maxcycle=768) opt=(cartesian,maxcycle=512) fr
 eq
 ----------------------------------------------------------------------
 1/6=512,10=7,14=-1,18=10,26=3,38=1/1,3;
 2/12=2,17=6,18=5,29=2,40=1/2;
 3/5=44,7=101,11=2,16=1,25=1,30=1,71=1,74=-13/1,2,3;
 4//1;
 5/5=2,7=768,38=5/2;
 6/7=2,8=2,9=2,10=2,28=1/1;
 7/7=1,29=1/1,2,3,16;
 1/6=512,10=7,14=-1,18=10,26=3/3(2);
 2/29=1/2;
 99/12=1/99;
 2/29=1/2;
 3/5=44,7=101,11=2,16=1,25=1,30=1,71=1,74=-13/1,2,3;
 4/5=5,16=3,69=1/1;
 5/5=2,7=768,38=5/2;
 7/7=1/1,2,3,16;
 1/6=512,14=-1,18=10,26=3/3(-5);
 2/29=1/2;
 6/7=2,8=2,9=2,10=2,19=2,28=1/1;
 99/9=1,12=1/99;
 Leave Link    1 at Tue Mar  6 15:15:28 2018, MaxMem=   536870912 cpu:         0.3
 (Enter /share/apps//mg09/l101.exe)
 ---------------------
 01Final_coords.xyz_44
 ---------------------
 Symbolic Z-matrix:
 Charge =  0 Multiplicity = 1
 83                   -2.09597   1.58193   0.04832 
 50                    1.86543  -0.18367   1.91843 
 83                   -1.79535  -1.30268  -0.73444 
 83                    1.34841  -1.3192   -1.25598 
 83                    1.90525   1.5804   -0.63121 
 32                   -1.18796  -0.14032   2.26173 
 50                    0.0886   -2.59115   1.26379 
 32                   -0.41636   0.90972  -2.23595 
 32                    0.20507   2.16448   1.6765 
 
 NAtoms=      9 NQM=        9 NQMF=       0 NMMI=      0 NMMIF=      0
                NMic=       0 NMicF=      0.
                    Isotopes and Nuclear Properties:
 (Nuclear quadrupole moments (NQMom) in fm**2, nuclear magnetic moments (NMagM)
  in nuclear magnetons)

  Atom         1           2           3           4           5           6           7           8           9
 IAtWgt=         209         118         209         209         209          74         118          74          74
 AtmWgt= 208.9804000 117.9018000 208.9804000 208.9804000 208.9804000  73.9211788 117.9018000  73.9211788  73.9211788
 NucSpn=           9           0           9           9           9           0           0           0           0
 AtZEff=   0.0000000   0.0000000   0.0000000   0.0000000   0.0000000   0.0000000   0.0000000   0.0000000   0.0000000
 NQMom=  -51.6000000   0.0000000 -51.6000000 -51.6000000 -51.6000000   0.0000000   0.0000000   0.0000000   0.0000000
 NMagM=    4.1106000   0.0000000   4.1106000   4.1106000   4.1106000   0.0000000   0.0000000   0.0000000   0.0000000
 AtZNuc=  83.0000000  50.0000000  83.0000000  83.0000000  83.0000000  32.0000000  50.0000000  32.0000000  32.0000000
 Leave Link  101 at Tue Mar  6 15:15:29 2018, MaxMem=   536870912 cpu:         0.4
 (Enter /share/apps//mg09/l103.exe)

 GradGradGradGradGradGradGradGradGradGradGradGradGradGradGradGradGradGrad
 Berny optimization.
 Initialization pass.
 No Z-matrix variables, so optimization will use Cartesian coordinates.
 Trust Radius=3.00D-01 FncErr=1.00D-07 GrdErr=1.00D-06
 Number of steps in this run=    100 maximum allowed number of steps=    100.
 GradGradGradGradGradGradGradGradGradGradGradGradGradGradGradGradGradGrad

 Leave Link  103 at Tue Mar  6 15:15:29 2018, MaxMem=   536870912 cpu:         0.1
 (Enter /share/apps//mg09/l202.exe)
 ---------------------------------------------------------------------------------------------------
                            Z-MATRIX (ANGSTROMS AND DEGREES)
   CD    Cent   Atom    N1       Length/X        N2       Alpha/Y        N3        Beta/Z          J
 ---------------------------------------------------------------------------------------------------
      1      1  Bi       0  -2.095969          1.581927          0.048318
      2      2  Sn       0   1.865432         -0.183674          1.918429
      3      3  Bi       0  -1.795351         -1.302684         -0.734436
      4      4  Bi       0   1.348411         -1.319201         -1.255975
      5      5  Bi       0   1.905254          1.580402         -0.631205
      6      6  Ge       0  -1.187962         -0.140322          2.261731
      7      7  Sn       0   0.088604         -2.591147          1.263786
      8      8  Ge       0  -0.416364          0.909718         -2.235947
      9      9  Ge       0   0.205065          2.164484          1.676499
 ---------------------------------------------------------------------------------------------------
                         Z-Matrix orientation:                         
 ---------------------------------------------------------------------
 Center     Atomic      Atomic             Coordinates (Angstroms)
 Number     Number       Type             X           Y           Z
 ---------------------------------------------------------------------
      1         83           0       -2.095969    1.581927    0.048318
      2         50           0        1.865432   -0.183674    1.918429
      3         83           0       -1.795351   -1.302684   -0.734436
      4         83           0        1.348411   -1.319201   -1.255975
      5         83           0        1.905254    1.580402   -0.631205
      6         32           0       -1.187962   -0.140322    2.261731
      7         50           0        0.088604   -2.591147    1.263786
      8         32           0       -0.416364    0.909718   -2.235947
      9         32           0        0.205065    2.164484    1.676499
 ---------------------------------------------------------------------
                    Distance matrix (angstroms):
                    1          2          3          4          5
     1  Bi   0.000000
     2  Sn   4.723067   0.000000
     3  Bi   3.004007   4.657382   0.000000
     4  Bi   4.688441   3.410802   3.186772   0.000000
     5  Bi   4.058514   3.100675   4.692262   3.017964   0.000000
     6  Ge   2.947849   3.072938   3.270630   4.494129   4.571428
     7  Sn   4.864593   3.062940   3.033532   3.090980   4.928796
     8  Ge   2.913899   4.864251   3.008465   3.007134   2.900849
     9  Ge   2.878386   2.886034   4.672850   4.694966   2.925285
                    6          7          8          9
     6  Ge   0.000000
     7  Sn   2.938036   0.000000
     8  Ge   4.682633   4.975860   0.000000
     9  Ge   2.755930   4.774926   4.155460   0.000000
 Stoichiometry    Bi4Ge3Sn2
 Framework group  C1[X(Bi4Ge3Sn2)]
 Deg. of freedom    21
 Full point group                 C1      NOp   1
 Largest Abelian subgroup         C1      NOp   1
 Largest concise Abelian subgroup C1      NOp   1
                         Standard orientation:                         
 ---------------------------------------------------------------------
 Center     Atomic      Atomic             Coordinates (Angstroms)
 Number     Number       Type             X           Y           Z
 ---------------------------------------------------------------------
      1         83           0        2.095969   -1.581927    0.048318
      2         50           0       -1.865432    0.183674    1.918429
      3         83           0        1.795351    1.302684   -0.734436
      4         83           0       -1.348411    1.319201   -1.255975
      5         83           0       -1.905254   -1.580402   -0.631205
      6         32           0        1.187962    0.140322    2.261731
      7         50           0       -0.088604    2.591147    1.263786
      8         32           0        0.416364   -0.909718   -2.235947
      9         32           0       -0.205065   -2.164484    1.676499
 ---------------------------------------------------------------------
 Rotational constants (GHZ):      0.0996765      0.0942171      0.0811165
 Leave Link  202 at Tue Mar  6 15:15:29 2018, MaxMem=   536870912 cpu:         0.1
 (Enter /share/apps//mg09/l301.exe)
 Standard basis: def2TZVP (5D, 7F)
 Ernie: Thresh=  0.10000D-02 Tol=  0.10000D-05 Strict=F.
 There are   519 symmetry adapted cartesian basis functions of A   symmetry.
 There are   444 symmetry adapted basis functions of A   symmetry.
   444 basis functions,   963 primitive gaussians,   519 cartesian basis functions
   116 alpha electrons      116 beta electrons
       nuclear repulsion energy      3543.1142263145 Hartrees.
 IExCor= 1009 DFT=T Ex+Corr=PBE1PBE ExCW=0 ScaHFX=  0.250000
 ScaDFX=  0.750000  0.750000  1.000000  1.000000 ScalE2=  1.000000  1.000000
 IRadAn=      0 IRanWt=     -1 IRanGd=            0 ICorTp=0 IEmpDi=  4
 NAtoms=    9 NActive=    9 NUniq=    9 SFac= 1.00D+00 NAtFMM=   60 NAOKFM=F Big=F
 Integral buffers will be    131072 words long.
 Raffenetti 2 integral format.
 Two-electron integral symmetry is turned on.
 Leave Link  301 at Tue Mar  6 15:15:29 2018, MaxMem=   536870912 cpu:         0.2
 (Enter /share/apps//mg09/l302.exe)
 NPDir=0 NMtPBC=     1 NCelOv=     1 NCel=       1 NClECP=     1 NCelD=      1
         NCelK=      1 NCelE2=     1 NClLst=     1 CellRange=     0.0.
 One-electron integrals computed using PRISM.
   1 Symmetry operations used in ECPInt.
 ECPInt:  NShTT=   10440 NPrTT=   41973 LenC2=    9659 LenP2D=   27462.
 LDataN:  DoStor=T MaxTD1= 8 Len=  415
 NBasis=   444 RedAO= T EigKep=  1.30D-03  NBF=   444
 NBsUse=   444 1.00D-06 EigRej= -1.00D+00 NBFU=   444
 Precomputing XC quadrature grid using
 IXCGrd= 4 IRadAn=           0 IRanWt=          -1 IRanGd=           0 AccXCQ= 0.00D+00.
 Defaulting to unpruned grid for atomic number  83.
 Defaulting to unpruned grid for atomic number  83.
 Defaulting to unpruned grid for atomic number  50.
 Generated NRdTot=       0 NPtTot=           0 NUsed=           0 NTot=          32
 NSgBfM=   505   505   505   505   505 MxSgAt=     9 MxSgA2=     9.
 Leave Link  302 at Tue Mar  6 15:15:42 2018, MaxMem=   536870912 cpu:        46.6
 (Enter /share/apps//mg09/l303.exe)
 DipDrv:  MaxL=1.
 Leave Link  303 at Tue Mar  6 15:15:42 2018, MaxMem=   536870912 cpu:         0.2
 (Enter /share/apps//mg09/l401.exe)
 ExpMin= 4.62D-02 ExpMax= 4.66D+05 ExpMxC= 4.50D+03 IAcc=2 IRadAn=         4 AccDes= 0.00D+00
 Harris functional with IExCor= 1009 and IRadAn=       4 diagonalized for initial guess.
 HarFok:  IExCor= 1009 AccDes= 0.00D+00 IRadAn=         4 IDoV= 1 UseB2=F ITyADJ=14
 ICtDFT=  3500011 ScaDFX=  1.000000  1.000000  1.000000  1.000000
 Defaulting to unpruned grid for atomic number  83.
 Defaulting to unpruned grid for atomic number  83.
 Defaulting to unpruned grid for atomic number  83.
 Defaulting to unpruned grid for atomic number  83.
 FoFCou: FMM=F IPFlag=           0 FMFlag=      100000 FMFlg1=           0
         NFxFlg=           0 DoJE=T BraDBF=F KetDBF=T FulRan=T
         wScrn=  0.000000 ICntrl=     500 IOpCl=  0 I1Cent=   200000004 NGrid=           0
         NMat0=    1 NMatS0=      1 NMatT0=    0 NMatD0=    1 NMtDS0=    0 NMtDT0=    0
 Petite list used in FoFCou.
 Harris En= -7518.60694120561    
 JPrj=0 DoOrth=F DoCkMO=F.
 Leave Link  401 at Tue Mar  6 15:15:45 2018, MaxMem=   536870912 cpu:        11.7
 (Enter /share/apps//mg09/l502.exe)
 Closed shell SCF:
 Using DIIS extrapolation, IDIIS=  1040.
 Integral symmetry usage will be decided dynamically.
 IVT=     1410107 IEndB=     1410107 NGot=   536870912 MDV=   536322046
 LenX=   536322046 LenY=   536052166
 Requested convergence on RMS density matrix=1.00D-08 within 768 cycles.
 Requested convergence on MAX density matrix=1.00D-06.
 Requested convergence on             energy=1.00D-06.
 No special actions if energy rises.
 Fock matrices will be formed incrementally for  20 cycles.

 Cycle   1  Pass 1  IDiag  1:
 FoFJK:  IHMeth= 1 ICntrl=       0 DoSepK=F KAlg= 0 I1Cent=   0 FoldK=F
 IRaf= 880000000 NMat=   1 IRICut=       1 DoRegI=T DoRafI=F ISym2E= 0.
 FoFCou: FMM=F IPFlag=           0 FMFlag=      100000 FMFlg1=           0
         NFxFlg=           0 DoJE=F BraDBF=F KetDBF=F FulRan=T
         wScrn=  0.000000 ICntrl=       0 IOpCl=  0 I1Cent=           0 NGrid=           0
         NMat0=    1 NMatS0=      1 NMatT0=    0 NMatD0=    1 NMtDS0=    0 NMtDT0=    0
 Symmetry not used in FoFCou.
 Defaulting to unpruned grid for atomic number  83.
 Defaulting to unpruned grid for atomic number  83.
 Defaulting to unpruned grid for atomic number  83.
 Defaulting to unpruned grid for atomic number  83.
 E= -7517.23267344298    
 DIIS: error= 3.26D-02 at cycle   1 NSaved=   1.
 NSaved= 1 IEnMin= 1 EnMin= -7517.23267344298     IErMin= 1 ErrMin= 3.26D-02
 ErrMax= 3.26D-02  0.00D+00 EMaxC= 1.00D-01 BMatC= 1.46D+00 BMatP= 1.46D+00
 IDIUse=3 WtCom= 6.74D-01 WtEn= 3.26D-01
 Coeff-Com:  0.100D+01
 Coeff-En:   0.100D+01
 Coeff:      0.100D+01
 Gap=     0.148 Goal=   None    Shift=    0.000
 GapD=    0.148 DampG=1.000 DampE=0.500 DampFc=0.5000 IDamp=-1.
 Damping current iteration by 5.00D-01
 RMSDP=5.82D-03 MaxDP=2.42D-01              OVMax= 9.70D-01

 Cycle   2  Pass 1  IDiag  1:
 RMSU=  2.91D-03    CP:  1.00D+00
 E= -7516.95304524804     Delta-E=        0.279628194945 Rises=F Damp=T
 DIIS: error= 1.43D-02 at cycle   2 NSaved=   2.
 NSaved= 2 IEnMin= 1 EnMin= -7517.23267344298     IErMin= 2 ErrMin= 1.43D-02
 ErrMax= 1.43D-02  0.00D+00 EMaxC= 1.00D-01 BMatC= 3.14D-01 BMatP= 1.46D+00
 IDIUse=3 WtCom= 8.57D-01 WtEn= 1.43D-01
 Coeff-Com:  0.169D+00 0.831D+00
 Coeff-En:   0.638D+00 0.362D+00
 Coeff:      0.236D+00 0.764D+00
 Gap=    -0.218 Goal=   None    Shift=    0.000
 RMSDP=4.12D-03 MaxDP=2.03D-01 DE= 2.80D-01 OVMax= 8.04D-01

 Cycle   3  Pass 1  IDiag  1:
 RMSU=  3.28D-03    CP:  1.01D+00  1.42D-01
 E= -7515.46128694987     Delta-E=        1.491758298169 Rises=F Damp=F
 DIIS: error= 3.88D-02 at cycle   3 NSaved=   3.
 NSaved= 3 IEnMin= 1 EnMin= -7517.23267344298     IErMin= 2 ErrMin= 1.43D-02
 ErrMax= 3.88D-02  0.00D+00 EMaxC= 1.00D-01 BMatC= 1.81D+00 BMatP= 3.14D-01
 IDIUse=2 WtCom= 0.00D+00 WtEn= 1.00D+00
 EnCoef did    11 forward-backward iterations
 Coeff-En:   0.566D+00 0.390D+00 0.446D-01
 Coeff:      0.566D+00 0.390D+00 0.446D-01
 Gap=     0.194 Goal=   None    Shift=    0.000
 RMSDP=3.46D-03 MaxDP=1.43D-01 DE= 1.49D+00 OVMax= 4.03D-01

 Cycle   4  Pass 1  IDiag  1:
 RMSU=  1.80D-03    CP:  1.01D+00  7.59D-01  2.85D-01
 E= -7517.66969913676     Delta-E=       -2.208412186888 Rises=F Damp=F
 DIIS: error= 1.26D-02 at cycle   4 NSaved=   4.
 NSaved= 4 IEnMin= 4 EnMin= -7517.66969913676     IErMin= 4 ErrMin= 1.26D-02
 ErrMax= 1.26D-02  0.00D+00 EMaxC= 1.00D-01 BMatC= 3.18D-01 BMatP= 3.14D-01
 IDIUse=3 WtCom= 8.74D-01 WtEn= 1.26D-01
 Coeff-Com:  0.319D+00-0.478D-02-0.355D-01 0.721D+00
 Coeff-En:   0.160D+00 0.000D+00 0.000D+00 0.840D+00
 Coeff:      0.299D+00-0.418D-02-0.310D-01 0.736D+00
 Gap=     0.109 Goal=   None    Shift=    0.000
 RMSDP=1.45D-03 MaxDP=6.38D-02 DE=-2.21D+00 OVMax= 1.16D-01

 Cycle   5  Pass 1  IDiag  1:
 RMSU=  7.90D-04    CP:  1.00D+00  5.48D-01  3.12D-02  6.48D-01
 E= -7517.73106181159     Delta-E=       -0.061362674829 Rises=F Damp=F
 DIIS: error= 7.12D-03 at cycle   5 NSaved=   5.
 NSaved= 5 IEnMin= 5 EnMin= -7517.73106181159     IErMin= 5 ErrMin= 7.12D-03
 ErrMax= 7.12D-03  0.00D+00 EMaxC= 1.00D-01 BMatC= 8.16D-02 BMatP= 3.14D-01
 IDIUse=3 WtCom= 9.29D-01 WtEn= 7.12D-02
 Coeff-Com:  0.171D+00-0.881D-01-0.115D-01 0.478D+00 0.450D+00
 Coeff-En:   0.000D+00 0.000D+00 0.000D+00 0.352D+00 0.648D+00
 Coeff:      0.159D+00-0.819D-01-0.107D-01 0.469D+00 0.464D+00
 Gap=     0.125 Goal=   None    Shift=    0.000
 RMSDP=8.77D-04 MaxDP=4.61D-02 DE=-6.14D-02 OVMax= 9.93D-02

 Cycle   6  Pass 1  IDiag  1:
 RMSU=  4.28D-04    CP:  1.00D+00  5.24D-01  1.43D-01  7.27D-01  1.87D-01
 E= -7517.79564739166     Delta-E=       -0.064585580076 Rises=F Damp=F
 DIIS: error= 3.39D-03 at cycle   6 NSaved=   6.
 NSaved= 6 IEnMin= 6 EnMin= -7517.79564739166     IErMin= 6 ErrMin= 3.39D-03
 ErrMax= 3.39D-03  0.00D+00 EMaxC= 1.00D-01 BMatC= 1.58D-02 BMatP= 8.16D-02
 IDIUse=3 WtCom= 9.66D-01 WtEn= 3.39D-02
 Coeff-Com:  0.508D-01-0.604D-01 0.398D-02 0.196D+00 0.335D+00 0.475D+00
 Coeff-En:   0.000D+00 0.000D+00 0.000D+00 0.000D+00 0.187D+00 0.813D+00
 Coeff:      0.491D-01-0.583D-01 0.384D-02 0.189D+00 0.330D+00 0.487D+00
 Gap=     0.122 Goal=   None    Shift=    0.000
 RMSDP=3.90D-04 MaxDP=1.42D-02 DE=-6.46D-02 OVMax= 4.93D-02

 Cycle   7  Pass 1  IDiag  1:
 RMSU=  2.15D-04    CP:  1.00D+00  5.22D-01  1.25D-01  7.05D-01  4.68D-01
                    CP:  4.80D-01
 E= -7517.80467353311     Delta-E=       -0.009026141444 Rises=F Damp=F
 DIIS: error= 1.71D-03 at cycle   7 NSaved=   7.
 NSaved= 7 IEnMin= 7 EnMin= -7517.80467353311     IErMin= 7 ErrMin= 1.71D-03
 ErrMax= 1.71D-03  0.00D+00 EMaxC= 1.00D-01 BMatC= 3.74D-03 BMatP= 1.58D-02
 IDIUse=3 WtCom= 9.83D-01 WtEn= 1.71D-02
 Coeff-Com:  0.289D-01-0.476D-01 0.278D-02 0.116D+00 0.208D+00 0.367D+00
 Coeff-Com:  0.325D+00
 Coeff-En:   0.000D+00 0.000D+00 0.000D+00 0.000D+00 0.000D+00 0.298D+00
 Coeff-En:   0.702D+00
 Coeff:      0.284D-01-0.468D-01 0.273D-02 0.114D+00 0.204D+00 0.365D+00
 Coeff:      0.332D+00
 Gap=     0.122 Goal=   None    Shift=    0.000
 RMSDP=2.00D-04 MaxDP=8.46D-03 DE=-9.03D-03 OVMax= 2.51D-02

 Cycle   8  Pass 1  IDiag  1:
 RMSU=  7.18D-05    CP:  1.00D+00  5.24D-01  1.26D-01  7.05D-01  4.11D-01
                    CP:  6.20D-01  2.03D-01
 E= -7517.80867352324     Delta-E=       -0.003999990135 Rises=F Damp=F
 DIIS: error= 9.50D-04 at cycle   8 NSaved=   8.
 NSaved= 8 IEnMin= 8 EnMin= -7517.80867352324     IErMin= 8 ErrMin= 9.50D-04
 ErrMax= 9.50D-04  0.00D+00 EMaxC= 1.00D-01 BMatC= 7.57D-04 BMatP= 3.74D-03
 IDIUse=3 WtCom= 9.90D-01 WtEn= 9.50D-03
 Coeff-Com:  0.123D-01-0.245D-01 0.351D-02 0.421D-01 0.693D-01 0.167D+00
 Coeff-Com:  0.278D+00 0.453D+00
 Coeff-En:   0.000D+00 0.000D+00 0.000D+00 0.000D+00 0.000D+00 0.000D+00
 Coeff-En:   0.194D+00 0.806D+00
 Coeff:      0.122D-01-0.243D-01 0.347D-02 0.417D-01 0.686D-01 0.165D+00
 Coeff:      0.277D+00 0.456D+00
 Gap=     0.122 Goal=   None    Shift=    0.000
 RMSDP=6.99D-05 MaxDP=3.30D-03 DE=-4.00D-03 OVMax= 9.54D-03

 Cycle   9  Pass 1  IDiag  1:
 RMSU=  2.73D-05    CP:  1.00D+00  5.23D-01  1.34D-01  7.08D-01  4.13D-01
                    CP:  5.85D-01  4.25D-01  6.07D-01
 E= -7517.80958257913     Delta-E=       -0.000909055892 Rises=F Damp=F
 DIIS: error= 1.24D-04 at cycle   9 NSaved=   9.
 NSaved= 9 IEnMin= 9 EnMin= -7517.80958257913     IErMin= 9 ErrMin= 1.24D-04
 ErrMax= 1.24D-04  0.00D+00 EMaxC= 1.00D-01 BMatC= 3.62D-05 BMatP= 7.57D-04
 IDIUse=3 WtCom= 9.99D-01 WtEn= 1.24D-03
 Coeff-Com:  0.351D-02-0.717D-02 0.756D-03 0.410D-02-0.777D-02 0.959D-02
 Coeff-Com:  0.568D-01 0.192D+00 0.748D+00
 Coeff-En:   0.000D+00 0.000D+00 0.000D+00 0.000D+00 0.000D+00 0.000D+00
 Coeff-En:   0.000D+00 0.000D+00 0.100D+01
 Coeff:      0.351D-02-0.716D-02 0.755D-03 0.409D-02-0.776D-02 0.958D-02
 Coeff:      0.568D-01 0.191D+00 0.749D+00
 Gap=     0.122 Goal=   None    Shift=    0.000
 RMSDP=2.27D-05 MaxDP=1.64D-03 DE=-9.09D-04 OVMax= 2.43D-03

 Cycle  10  Pass 1  IDiag  1:
 RMSU=  1.57D-05    CP:  1.00D+00  5.20D-01  1.36D-01  7.06D-01  4.05D-01
                    CP:  5.92D-01  4.33D-01  7.18D-01  7.38D-01
 E= -7517.80961993718     Delta-E=       -0.000037358044 Rises=F Damp=F
 DIIS: error= 6.16D-05 at cycle  10 NSaved=  10.
 NSaved=10 IEnMin=10 EnMin= -7517.80961993718     IErMin=10 ErrMin= 6.16D-05
 ErrMax= 6.16D-05  0.00D+00 EMaxC= 1.00D-01 BMatC= 1.12D-05 BMatP= 3.62D-05
 IDIUse=1 WtCom= 1.00D+00 WtEn= 0.00D+00
 Coeff-Com:  0.770D-03-0.170D-02 0.283D-03-0.278D-02-0.139D-01-0.174D-01
 Coeff-Com: -0.971D-02 0.487D-01 0.511D+00 0.484D+00
 Coeff:      0.770D-03-0.170D-02 0.283D-03-0.278D-02-0.139D-01-0.174D-01
 Coeff:     -0.971D-02 0.487D-01 0.511D+00 0.484D+00
 Gap=     0.122 Goal=   None    Shift=    0.000
 RMSDP=8.83D-06 MaxDP=4.48D-04 DE=-3.74D-05 OVMax= 1.08D-03

 Cycle  11  Pass 1  IDiag  1:
 RMSU=  4.44D-06    CP:  1.00D+00  5.20D-01  1.36D-01  7.06D-01  4.04D-01
                    CP:  5.94D-01  4.28D-01  7.14D-01  8.90D-01  6.22D-01
 E= -7517.80963149342     Delta-E=       -0.000011556243 Rises=F Damp=F
 DIIS: error= 2.16D-05 at cycle  11 NSaved=  11.
 NSaved=11 IEnMin=11 EnMin= -7517.80963149342     IErMin=11 ErrMin= 2.16D-05
 ErrMax= 2.16D-05  0.00D+00 EMaxC= 1.00D-01 BMatC= 9.28D-07 BMatP= 1.12D-05
 IDIUse=1 WtCom= 1.00D+00 WtEn= 0.00D+00
 Coeff-Com:  0.297D-03-0.658D-03 0.187D-03-0.182D-02-0.784D-02-0.118D-01
 Coeff-Com: -0.108D-01 0.144D-01 0.262D+00 0.291D+00 0.465D+00
 Coeff:      0.297D-03-0.658D-03 0.187D-03-0.182D-02-0.784D-02-0.118D-01
 Coeff:     -0.108D-01 0.144D-01 0.262D+00 0.291D+00 0.465D+00
 Gap=     0.122 Goal=   None    Shift=    0.000
 RMSDP=4.18D-06 MaxDP=1.92D-04 DE=-1.16D-05 OVMax= 5.03D-04

 Cycle  12  Pass 1  IDiag  1:
 RMSU=  2.96D-06    CP:  1.00D+00  5.20D-01  1.36D-01  7.06D-01  4.04D-01
                    CP:  5.94D-01  4.28D-01  7.10D-01  9.11D-01  6.35D-01
                    CP:  3.62D-01
 E= -7517.80963187502     Delta-E=       -0.000000381597 Rises=F Damp=F
 DIIS: error= 2.35D-05 at cycle  12 NSaved=  12.
 NSaved=12 IEnMin=12 EnMin= -7517.80963187502     IErMin=11 ErrMin= 2.16D-05
 ErrMax= 2.35D-05  0.00D+00 EMaxC= 1.00D-01 BMatC= 5.44D-07 BMatP= 9.28D-07
 IDIUse=1 WtCom= 1.00D+00 WtEn= 0.00D+00
 Coeff-Com:  0.106D-03-0.212D-03 0.838D-04-0.694D-03-0.293D-02-0.549D-02
 Coeff-Com: -0.655D-02-0.965D-03 0.850D-01 0.115D+00 0.419D+00 0.397D+00
 Coeff:      0.106D-03-0.212D-03 0.838D-04-0.694D-03-0.293D-02-0.549D-02
 Coeff:     -0.655D-02-0.965D-03 0.850D-01 0.115D+00 0.419D+00 0.397D+00
 Gap=     0.122 Goal=   None    Shift=    0.000
 RMSDP=2.28D-06 MaxDP=9.77D-05 DE=-3.82D-07 OVMax= 2.80D-04

 Cycle  13  Pass 1  IDiag  1:
 RMSU=  8.45D-07    CP:  1.00D+00  5.20D-01  1.36D-01  7.06D-01  4.04D-01
                    CP:  5.93D-01  4.28D-01  7.13D-01  9.18D-01  6.31D-01
                    CP:  6.68D-01  4.78D-01
 E= -7517.80963262931     Delta-E=       -0.000000754289 Rises=F Damp=F
 DIIS: error= 3.08D-06 at cycle  13 NSaved=  13.
 NSaved=13 IEnMin=13 EnMin= -7517.80963262931     IErMin=13 ErrMin= 3.08D-06
 ErrMax= 3.08D-06  0.00D+00 EMaxC= 1.00D-01 BMatC= 2.29D-08 BMatP= 5.44D-07
 IDIUse=1 WtCom= 1.00D+00 WtEn= 0.00D+00
 Coeff-Com:  0.298D-04-0.428D-04 0.576D-05 0.131D-04-0.186D-03-0.839D-03
 Coeff-Com: -0.156D-02-0.322D-02-0.558D-02 0.119D-01 0.132D+00 0.209D+00
 Coeff-Com:  0.659D+00
 Coeff:      0.298D-04-0.428D-04 0.576D-05 0.131D-04-0.186D-03-0.839D-03
 Coeff:     -0.156D-02-0.322D-02-0.558D-02 0.119D-01 0.132D+00 0.209D+00
 Coeff:      0.659D+00
 Gap=     0.122 Goal=   None    Shift=    0.000
 RMSDP=5.13D-07 MaxDP=2.48D-05 DE=-7.54D-07 OVMax= 6.55D-05

 Cycle  14  Pass 1  IDiag  1:
 RMSU=  2.92D-07    CP:  1.00D+00  5.20D-01  1.36D-01  7.05D-01  4.04D-01
                    CP:  5.93D-01  4.28D-01  7.14D-01  9.15D-01  6.44D-01
                    CP:  6.56D-01  5.56D-01  7.70D-01
 E= -7517.80963265843     Delta-E=       -0.000000029126 Rises=F Damp=F
 DIIS: error= 1.23D-06 at cycle  14 NSaved=  14.
 NSaved=14 IEnMin=14 EnMin= -7517.80963265843     IErMin=14 ErrMin= 1.23D-06
 ErrMax= 1.23D-06  0.00D+00 EMaxC= 1.00D-01 BMatC= 1.90D-09 BMatP= 2.29D-08
 IDIUse=1 WtCom= 1.00D+00 WtEn= 0.00D+00
 Coeff-Com:  0.312D-05 0.525D-05 0.186D-05 0.163D-04 0.938D-05-0.148D-03
 Coeff-Com: -0.366D-03-0.163D-02-0.716D-02-0.178D-02 0.337D-01 0.696D-01
 Coeff-Com:  0.323D+00 0.585D+00
 Coeff:      0.312D-05 0.525D-05 0.186D-05 0.163D-04 0.938D-05-0.148D-03
 Coeff:     -0.366D-03-0.163D-02-0.716D-02-0.178D-02 0.337D-01 0.696D-01
 Coeff:      0.323D+00 0.585D+00
 Gap=     0.122 Goal=   None    Shift=    0.000
 RMSDP=1.67D-07 MaxDP=1.09D-05 DE=-2.91D-08 OVMax= 1.96D-05

 Cycle  15  Pass 1  IDiag  1:
 RMSU=  9.68D-08    CP:  1.00D+00  5.20D-01  1.36D-01  7.05D-01  4.04D-01
                    CP:  5.93D-01  4.28D-01  7.14D-01  9.16D-01  6.46D-01
                    CP:  6.62D-01  5.63D-01  8.40D-01  7.85D-01
 E= -7517.80963266071     Delta-E=       -0.000000002277 Rises=F Damp=F
 DIIS: error= 4.12D-07 at cycle  15 NSaved=  15.
 NSaved=15 IEnMin=15 EnMin= -7517.80963266071     IErMin=15 ErrMin= 4.12D-07
 ErrMax= 4.12D-07  0.00D+00 EMaxC= 1.00D-01 BMatC= 2.67D-10 BMatP= 1.90D-09
 IDIUse=1 WtCom= 1.00D+00 WtEn= 0.00D+00
 Coeff-Com: -0.992D-06 0.560D-05-0.166D-05 0.186D-04 0.603D-04 0.949D-04
 Coeff-Com:  0.705D-04-0.502D-03-0.336D-02-0.323D-02-0.390D-04 0.809D-02
 Coeff-Com:  0.896D-01 0.326D+00 0.584D+00
 Coeff:     -0.992D-06 0.560D-05-0.166D-05 0.186D-04 0.603D-04 0.949D-04
 Coeff:      0.705D-04-0.502D-03-0.336D-02-0.323D-02-0.390D-04 0.809D-02
 Coeff:      0.896D-01 0.326D+00 0.584D+00
 Gap=     0.122 Goal=   None    Shift=    0.000
 RMSDP=6.21D-08 MaxDP=4.33D-06 DE=-2.28D-09 OVMax= 7.33D-06

 Cycle  16  Pass 1  IDiag  1:
 RMSU=  3.42D-08    CP:  1.00D+00  5.20D-01  1.36D-01  7.05D-01  4.04D-01
                    CP:  5.93D-01  4.28D-01  7.14D-01  9.16D-01  6.45D-01
                    CP:  6.66D-01  5.65D-01  8.51D-01  8.69D-01  6.86D-01
 E= -7517.80963266123     Delta-E=       -0.000000000518 Rises=F Damp=F
 DIIS: error= 1.93D-07 at cycle  16 NSaved=  16.
 NSaved=16 IEnMin=16 EnMin= -7517.80963266123     IErMin=16 ErrMin= 1.93D-07
 ErrMax= 1.93D-07  0.00D+00 EMaxC= 1.00D-01 BMatC= 4.13D-11 BMatP= 2.67D-10
 IDIUse=1 WtCom= 1.00D+00 WtEn= 0.00D+00
 Coeff-Com: -0.125D-05 0.316D-05-0.875D-06 0.796D-05 0.322D-04 0.706D-04
 Coeff-Com:  0.894D-04-0.196D-04-0.821D-03-0.125D-02-0.356D-02-0.253D-02
 Coeff-Com:  0.137D-01 0.102D+00 0.289D+00 0.603D+00
 Coeff:     -0.125D-05 0.316D-05-0.875D-06 0.796D-05 0.322D-04 0.706D-04
 Coeff:      0.894D-04-0.196D-04-0.821D-03-0.125D-02-0.356D-02-0.253D-02
 Coeff:      0.137D-01 0.102D+00 0.289D+00 0.603D+00
 Gap=     0.122 Goal=   None    Shift=    0.000
 RMSDP=2.16D-08 MaxDP=1.63D-06 DE=-5.18D-10 OVMax= 3.06D-06

 Cycle  17  Pass 1  IDiag  1:
 RMSU=  1.07D-08    CP:  1.00D+00  5.20D-01  1.36D-01  7.05D-01  4.04D-01
                    CP:  5.93D-01  4.28D-01  7.14D-01  9.16D-01  6.45D-01
                    CP:  6.66D-01  5.66D-01  8.55D-01  8.77D-01  7.86D-01
                    CP:  8.12D-01
 E= -7517.80963266115     Delta-E=        0.000000000078 Rises=F Damp=F
 DIIS: error= 4.43D-08 at cycle  17 NSaved=  17.
 NSaved=17 IEnMin=16 EnMin= -7517.80963266123     IErMin=17 ErrMin= 4.43D-08
 ErrMax= 4.43D-08  0.00D+00 EMaxC= 1.00D-01 BMatC= 4.35D-12 BMatP= 4.13D-11
 IDIUse=1 WtCom= 1.00D+00 WtEn= 0.00D+00
 Coeff-Com: -0.826D-06 0.150D-05-0.136D-06 0.164D-05 0.105D-04 0.260D-04
 Coeff-Com:  0.384D-04 0.593D-04 0.332D-04-0.180D-03-0.165D-02-0.228D-02
 Coeff-Com: -0.486D-02 0.113D-01 0.686D-01 0.296D+00 0.633D+00
 Coeff:     -0.826D-06 0.150D-05-0.136D-06 0.164D-05 0.105D-04 0.260D-04
 Coeff:      0.384D-04 0.593D-04 0.332D-04-0.180D-03-0.165D-02-0.228D-02
 Coeff:     -0.486D-02 0.113D-01 0.686D-01 0.296D+00 0.633D+00
 Gap=     0.122 Goal=   None    Shift=    0.000
 RMSDP=7.64D-09 MaxDP=3.89D-07 DE= 7.82D-11 OVMax= 1.04D-06

 SCF Done:  E(RPBE1PBE) =  -7517.80963266     A.U. after   17 cycles
            NFock= 17  Conv=0.76D-08     -V/T= 2.1285
 KE= 6.661959338387D+03 PE=-2.467756531415D+04 EE= 6.954682116788D+03
 Leave Link  502 at Tue Mar  6 15:32:27 2018, MaxMem=   536870912 cpu:      3648.6
 (Enter /share/apps//mg09/l601.exe)
 Copying SCF densities to generalized density rwf, IOpCl= 0 IROHF=0.

 **********************************************************************

            Population analysis using the SCF density.

 **********************************************************************

 Orbital symmetries:
       Occupied  (A) (A) (A) (A) (A) (A) (A) (A) (A) (A) (A) (A)
                 (A) (A) (A) (A) (A) (A) (A) (A) (A) (A) (A) (A)
                 (A) (A) (A) (A) (A) (A) (A) (A) (A) (A) (A) (A)
                 (A) (A) (A) (A) (A) (A) (A) (A) (A) (A) (A) (A)
                 (A) (A) (A) (A) (A) (A) (A) (A) (A) (A) (A) (A)
                 (A) (A) (A) (A) (A) (A) (A) (A) (A) (A) (A) (A)
                 (A) (A) (A) (A) (A) (A) (A) (A) (A) (A) (A) (A)
                 (A) (A) (A) (A) (A) (A) (A) (A) (A) (A) (A) (A)
                 (A) (A) (A) (A) (A) (A) (A) (A) (A) (A) (A) (A)
                 (A) (A) (A) (A) (A) (A) (A) (A)
       Virtual   (A) (A) (A) (A) (A) (A) (A) (A) (A) (A) (A) (A)
                 (A) (A) (A) (A) (A) (A) (A) (A) (A) (A) (A) (A)
                 (A) (A) (A) (A) (A) (A) (A) (A) (A) (A) (A) (A)
                 (A) (A) (A) (A) (A) (A) (A) (A) (A) (A) (A) (A)
                 (A) (A) (A) (A) (A) (A) (A) (A) (A) (A) (A) (A)
                 (A) (A) (A) (A) (A) (A) (A) (A) (A) (A) (A) (A)
                 (A) (A) (A) (A) (A) (A) (A) (A) (A) (A) (A) (A)
                 (A) (A) (A) (A) (A) (A) (A) (A) (A) (A) (A) (A)
                 (A) (A) (A) (A) (A) (A) (A) (A) (A) (A) (A) (A)
                 (A) (A) (A) (A) (A) (A) (A) (A) (A) (A) (A) (A)
                 (A) (A) (A) (A) (A) (A) (A) (A) (A) (A) (A) (A)
                 (A) (A) (A) (A) (A) (A) (A) (A) (A) (A) (A) (A)
                 (A) (A) (A) (A) (A) (A) (A) (A) (A) (A) (A) (A)
                 (A) (A) (A) (A) (A) (A) (A) (A) (A) (A) (A) (A)
                 (A) (A) (A) (A) (A) (A) (A) (A) (A) (A) (A) (A)
                 (A) (A) (A) (A) (A) (A) (A) (A) (A) (A) (A) (A)
                 (A) (A) (A) (A) (A) (A) (A) (A) (A) (A) (A) (A)
                 (A) (A) (A) (A) (A) (A) (A) (A) (A) (A) (A) (A)
                 (A) (A) (A) (A) (A) (A) (A) (A) (A) (A) (A) (A)
                 (A) (A) (A) (A) (A) (A) (A) (A) (A) (A) (A) (A)
                 (A) (A) (A) (A) (A) (A) (A) (A) (A) (A) (A) (A)
                 (A) (A) (A) (A) (A) (A) (A) (A) (A) (A) (A) (A)
                 (A) (A) (A) (A) (A) (A) (A) (A) (A) (A) (A) (A)
                 (A) (A) (A) (A) (A) (A) (A) (A) (A) (A) (A) (A)
                 (A) (A) (A) (A) (A) (A) (A) (A) (A) (A) (A) (A)
                 (A) (A) (A) (A) (A) (A) (A) (A) (A) (A) (A) (A)
                 (A) (A) (A) (A) (A) (A) (A) (A) (A) (A) (A) (A)
                 (A) (A) (A) (A)
 The electronic state is 1-A.
 Alpha  occ. eigenvalues -- -399.10033-399.09590-399.08793 -49.91610 -49.91142
 Alpha  occ. eigenvalues --  -49.90394 -44.39700 -44.39666 -44.39625 -44.39251
 Alpha  occ. eigenvalues --  -44.39185 -44.39162 -44.38475 -44.38447 -44.38420
 Alpha  occ. eigenvalues --   -6.28111  -6.27638  -6.26907  -6.02729  -6.02586
 Alpha  occ. eigenvalues --   -6.01233  -6.01123  -5.13440  -5.13379  -4.43577
 Alpha  occ. eigenvalues --   -4.43480  -4.43328  -4.43159  -4.42956  -4.42859
 Alpha  occ. eigenvalues --   -4.42367  -4.42260  -4.42172  -3.74990  -3.74881
 Alpha  occ. eigenvalues --   -3.74848  -3.74753  -3.74738  -3.74571  -3.73539
 Alpha  occ. eigenvalues --   -3.73447  -3.73411  -3.73282  -3.73167  -3.73048
 Alpha  occ. eigenvalues --   -3.46672  -3.46660  -3.46629  -3.46483  -3.46376
 Alpha  occ. eigenvalues --   -3.46332  -1.23037  -1.23031  -1.22873  -1.22833
 Alpha  occ. eigenvalues --   -1.22775  -1.22590  -1.22547  -1.22449  -1.22327
 Alpha  occ. eigenvalues --   -1.22282  -1.21817  -1.21792  -1.21711  -1.21615
 Alpha  occ. eigenvalues --   -1.21603  -1.08995  -1.08734  -1.08652  -1.08563
 Alpha  occ. eigenvalues --   -1.08476  -1.08433  -1.08377  -1.08278  -1.08180
 Alpha  occ. eigenvalues --   -1.08098  -1.07172  -1.07091  -1.07073  -1.06982
 Alpha  occ. eigenvalues --   -1.06957  -1.06834  -1.06823  -1.06760  -1.06692
 Alpha  occ. eigenvalues --   -1.06624  -1.03053  -1.02934  -1.02864  -1.02823
 Alpha  occ. eigenvalues --   -1.02750  -1.02711  -1.02664  -1.02591  -1.02430
 Alpha  occ. eigenvalues --   -1.02327  -0.67056  -0.62165  -0.59716  -0.54830
 Alpha  occ. eigenvalues --   -0.53396  -0.45328  -0.44933  -0.42790  -0.39876
 Alpha  occ. eigenvalues --   -0.29039  -0.27813  -0.26930  -0.25304  -0.25210
 Alpha  occ. eigenvalues --   -0.24629  -0.23640  -0.22159  -0.21650  -0.20838
 Alpha  occ. eigenvalues --   -0.20008
 Alpha virt. eigenvalues --   -0.07839  -0.07367  -0.06848  -0.06420  -0.06236
 Alpha virt. eigenvalues --   -0.06132  -0.05610  -0.05300  -0.04494  -0.03422
 Alpha virt. eigenvalues --   -0.02678  -0.02396  -0.00635   0.04025   0.04835
 Alpha virt. eigenvalues --    0.04988   0.06357   0.08201   0.08443   0.08993
 Alpha virt. eigenvalues --    0.09329   0.09404   0.10014   0.10411   0.10726
 Alpha virt. eigenvalues --    0.11032   0.11412   0.11887   0.12104   0.12921
 Alpha virt. eigenvalues --    0.14188   0.15263   0.15665   0.16241   0.16937
 Alpha virt. eigenvalues --    0.17480   0.18069   0.20084   0.20255   0.21023
 Alpha virt. eigenvalues --    0.21143   0.21433   0.22607   0.23599   0.24233
 Alpha virt. eigenvalues --    0.24867   0.25938   0.26089   0.28654   0.28731
 Alpha virt. eigenvalues --    0.29252   0.29760   0.30131   0.30545   0.30908
 Alpha virt. eigenvalues --    0.31684   0.32475   0.32952   0.33376   0.33522
 Alpha virt. eigenvalues --    0.34170   0.34412   0.36238   0.37807   0.38239
 Alpha virt. eigenvalues --    0.38835   0.39934   0.41094   0.41574   0.41908
 Alpha virt. eigenvalues --    0.42201   0.42570   0.42971   0.44267   0.44328
 Alpha virt. eigenvalues --    0.45444   0.45720   0.46537   0.47152   0.48133
 Alpha virt. eigenvalues --    0.48358   0.49568   0.50606   0.51459   0.51936
 Alpha virt. eigenvalues --    0.52938   0.53411   0.54671   0.54809   0.56166
 Alpha virt. eigenvalues --    0.57054   0.57387   0.57874   0.58420   0.59012
 Alpha virt. eigenvalues --    0.59506   0.60259   0.60684   0.61551   0.62185
 Alpha virt. eigenvalues --    0.62515   0.64396   0.64644   0.65301   0.65999
 Alpha virt. eigenvalues --    0.66583   0.67422   0.68427   0.69116   0.69695
 Alpha virt. eigenvalues --    0.70249   0.71110   0.73016   0.73339   0.73617
 Alpha virt. eigenvalues --    0.73841   0.75237   0.76469   0.78319   0.78819
 Alpha virt. eigenvalues --    0.79440   0.81462   0.82129   0.82488   0.82889
 Alpha virt. eigenvalues --    0.83215   0.83813   0.83966   0.84871   0.85294
 Alpha virt. eigenvalues --    0.86569   0.87219   0.88336   0.89135   0.89570
 Alpha virt. eigenvalues --    0.90375   0.91383   0.91501   0.92184   0.93828
 Alpha virt. eigenvalues --    0.94206   0.94780   0.96427   0.96970   0.97107
 Alpha virt. eigenvalues --    0.98099   0.98952   1.00391   1.00497   1.01256
 Alpha virt. eigenvalues --    1.02094   1.05226   1.06060   1.06878   1.08254
 Alpha virt. eigenvalues --    1.08963   1.09951   1.10908   1.11143   1.13515
 Alpha virt. eigenvalues --    1.14201   1.15118   1.15566   1.15934   1.17243
 Alpha virt. eigenvalues --    1.17482   1.18033   1.18454   1.18636   1.19529
 Alpha virt. eigenvalues --    1.19774   1.20779   1.21211   1.21556   1.22162
 Alpha virt. eigenvalues --    1.22963   1.23148   1.23857   1.23975   1.24923
 Alpha virt. eigenvalues --    1.25099   1.25410   1.25776   1.26172   1.26570
 Alpha virt. eigenvalues --    1.27743   1.28039   1.28602   1.29276   1.29601
 Alpha virt. eigenvalues --    1.29825   1.30822   1.32000   1.32919   1.33716
 Alpha virt. eigenvalues --    1.35205   1.36596   1.37807   1.39386   1.39828
 Alpha virt. eigenvalues --    1.40345   1.41221   1.41639   1.43445   1.43980
 Alpha virt. eigenvalues --    1.45322   1.46185   1.46683   1.48664   1.49108
 Alpha virt. eigenvalues --    1.49703   1.50314   1.51101   1.52243   1.54176
 Alpha virt. eigenvalues --    1.54654   1.55483   1.55950   1.57539   1.60939
 Alpha virt. eigenvalues --    1.61907   1.63179   1.71828   2.06651   2.07687
 Alpha virt. eigenvalues --    2.08869   2.09253   2.12646   2.13077   2.16349
 Alpha virt. eigenvalues --    2.17421   2.18950   2.19719   2.20452   2.21904
 Alpha virt. eigenvalues --    2.22725   2.23470   2.24915   2.25659   2.26139
 Alpha virt. eigenvalues --    2.27842   2.28760   2.29991   2.30517   2.32344
 Alpha virt. eigenvalues --    2.32623   2.33982   2.34989   2.36508   2.37193
 Alpha virt. eigenvalues --    2.41073   2.42296   2.43369   2.44774   2.46659
 Alpha virt. eigenvalues --    2.47702   2.49414   2.50909   2.53385   2.55622
 Alpha virt. eigenvalues --    2.56430   2.58769   2.60968   2.64663   2.67649
 Alpha virt. eigenvalues --    2.68955   2.70308   2.73160   2.74578   2.76393
 Alpha virt. eigenvalues --    2.77426   2.77585   2.78558   2.80114   2.81369
 Alpha virt. eigenvalues --    2.82574   2.84271   2.85855   2.88118   2.96334
 Alpha virt. eigenvalues --    3.22326   3.23387   3.30757   3.34139   3.38030
 Alpha virt. eigenvalues --    3.46039   3.94633   3.94854   3.98843   3.99327
 Alpha virt. eigenvalues --    4.02079   4.02797   4.05461   4.10089   4.14272
 Alpha virt. eigenvalues --    5.25602   5.33578   5.38184  35.39026  35.40891
 Alpha virt. eigenvalues --   35.42213  35.43179  35.45051  35.47026  35.48662
 Alpha virt. eigenvalues --   35.51991  35.52460  35.57058  35.58484  35.65027
 Alpha virt. eigenvalues --   35.87365  35.92475  35.97462  36.12488  36.19174
 Alpha virt. eigenvalues --   36.22223  36.94622  36.97021  36.99254  37.06470
 Alpha virt. eigenvalues --   37.08489  37.17358 113.57733 113.59016 120.21609
 Alpha virt. eigenvalues --  120.23562 120.24113 120.26306
          Condensed to atoms (all electrons):
               1          2          3          4          5          6
     1  Bi  22.336764  -0.020285   0.182902  -0.029184  -0.027459   0.134593
     2  Sn  -0.020285  21.357749  -0.023134   0.069103   0.132456   0.106228
     3  Bi   0.182902  -0.023134  22.285277   0.122487  -0.028846   0.064989
     4  Bi  -0.029184   0.069103   0.122487  22.317261   0.186144  -0.026678
     5  Bi  -0.027459   0.132456  -0.028846   0.186144  22.356983  -0.022341
     6  Ge   0.134593   0.106228   0.064989  -0.026678  -0.022341  31.540027
     7  Sn  -0.018311   0.151054   0.166029   0.155006  -0.017024   0.162819
     8  Ge   0.173686  -0.014917   0.121087   0.126454   0.182094  -0.016816
     9  Ge   0.192115   0.150415  -0.018928  -0.018710   0.179117   0.150030
               7          8          9
     1  Bi  -0.018311   0.173686   0.192115
     2  Sn   0.151054  -0.014917   0.150415
     3  Bi   0.166029   0.121087  -0.018928
     4  Bi   0.155006   0.126454  -0.018710
     5  Bi  -0.017024   0.182094   0.179117
     6  Ge   0.162819  -0.016816   0.150030
     7  Sn  21.471805  -0.012298  -0.014496
     8  Ge  -0.012298  31.612490  -0.013861
     9  Ge  -0.014496  -0.013861  31.550607
 Mulliken charges:
               1
     1  Bi   0.075180
     2  Sn   0.091330
     3  Bi   0.128138
     4  Bi   0.098118
     5  Bi   0.058876
     6  Ge  -0.092850
     7  Sn  -0.044583
     8  Ge  -0.157920
     9  Ge  -0.156289
 Sum of Mulliken charges =   0.00000
 Mulliken charges with hydrogens summed into heavy atoms:
               1
     1  Bi   0.075180
     2  Sn   0.091330
     3  Bi   0.128138
     4  Bi   0.098118
     5  Bi   0.058876
     6  Ge  -0.092850
     7  Sn  -0.044583
     8  Ge  -0.157920
     9  Ge  -0.156289
 Electronic spatial extent (au):  <R**2>=           5973.2207
 Charge=              0.0000 electrons
 Dipole moment (field-independent basis, Debye):
    X=             -0.0629    Y=              1.0127    Z=             -1.0965  Tot=              1.4939
 Quadrupole moment (field-independent basis, Debye-Ang):
   XX=           -215.8576   YY=           -215.7522   ZZ=           -222.7387
   XY=             -0.4560   XZ=             -0.9311   YZ=              0.9943
 Traceless Quadrupole moment (field-independent basis, Debye-Ang):
   XX=              2.2586   YY=              2.3639   ZZ=             -4.6225
   XY=             -0.4560   XZ=             -0.9311   YZ=              0.9943
 Octapole moment (field-independent basis, Debye-Ang**2):
  XXX=             20.8636  YYY=             -6.5005  ZZZ=            -95.1452  XYY=              7.0917
  XXY=             -1.1501  XXZ=            -41.3302  XZZ=             -1.0890  YZZ=              6.5418
  YYZ=            -43.1349  XYZ=             -1.1079
 Hexadecapole moment (field-independent basis, Debye-Ang**3):
 XXXX=          -3338.0557 YYYY=          -3406.0232 ZZZZ=          -2978.9418 XXXY=              7.7277
 XXXZ=             43.0114 YYYX=              2.6391 YYYZ=            -39.8091 ZZZX=             43.4404
 ZZZY=            -32.5182 XXYY=          -1076.4389 XXZZ=          -1051.8901 YYZZ=          -1054.3110
 XXYZ=            -24.7291 YYXZ=             21.7957 ZZXY=             -3.1248
 N-N= 3.543114226314D+03 E-N=-2.467756530690D+04  KE= 6.661959338387D+03
 No NMR shielding tensors so no spin-rotation constants.
 Leave Link  601 at Tue Mar  6 15:32:28 2018, MaxMem=   536870912 cpu:         1.7
 (Enter /share/apps//mg09/l701.exe)
 Compute integral first derivatives.
 ... and contract with generalized density number  0.
   1 Symmetry operations used in ECPInt.
 ECPInt:  NShTT=   10440 NPrTT=   41973 LenC2=    9659 LenP2D=   27462.
 LDataN:  DoStor=T MaxTD1= 9 Len=  602
 Leave Link  701 at Tue Mar  6 15:32:54 2018, MaxMem=   536870912 cpu:        94.9
 (Enter /share/apps//mg09/l702.exe)
 L702 exits ... SP integral derivatives will be done elsewhere.
 Leave Link  702 at Tue Mar  6 15:32:54 2018, MaxMem=   536870912 cpu:         0.1
 (Enter /share/apps//mg09/l703.exe)
 Compute integral first derivatives, UseDBF=F ICtDFT=           0.
 Integral derivatives from FoFJK, PRISM(SPDF).
 Calling FoFJK, ICntrl=      2127 FMM=F ISym2X=0 I1Cent= 0 IOpClX= 0 NMat=1 NMatS=1 NMatT=0.
 FoFJK:  IHMeth= 1 ICntrl=    2127 DoSepK=F KAlg= 0 I1Cent=   0 FoldK=F
 IRaf=         0 NMat=   1 IRICut=       1 DoRegI=T DoRafI=F ISym2E= 0.
 FoFCou: FMM=F IPFlag=           0 FMFlag=      100000 FMFlg1=         800
         NFxFlg=           0 DoJE=F BraDBF=F KetDBF=F FulRan=T
         wScrn=  0.000000 ICntrl=    2127 IOpCl=  0 I1Cent=           0 NGrid=           0
         NMat0=    1 NMatS0=      1 NMatT0=    0 NMatD0=    1 NMtDS0=    0 NMtDT0=    0
 Symmetry not used in FoFCou.
 Defaulting to unpruned grid for atomic number  83.
 Defaulting to unpruned grid for atomic number  83.
 Defaulting to unpruned grid for atomic number  83.
 Defaulting to unpruned grid for atomic number  83.
 Leave Link  703 at Tue Mar  6 15:36:38 2018, MaxMem=   536870912 cpu:       865.2
 (Enter /share/apps//mg09/l716.exe)
 Dipole        =-2.47386075D-02 3.98434095D-01-4.31393352D-01
 ***** Axes restored to original set *****
 -------------------------------------------------------------------
 Center     Atomic                   Forces (Hartrees/Bohr)
 Number     Number              X              Y              Z
 -------------------------------------------------------------------
      1       83           0.008558862   -0.004760136    0.001562586
      2       50          -0.013516247    0.002507655   -0.006279476
      3       83           0.006817539    0.004836981    0.003398031
      4       83          -0.004982370    0.004859735    0.004749523
      5       83          -0.007628551   -0.004235378    0.003087593
      6       32           0.011310656    0.003484302   -0.010165439
      7       50          -0.000762432    0.012216126   -0.002362227
      8       32           0.002016321   -0.004126259    0.010277068
      9       32          -0.001813778   -0.014783026   -0.004267658
 -------------------------------------------------------------------
 Cartesian Forces:  Max     0.014783026 RMS     0.007019560
 Force constants in Cartesian coordinates: 
                1             2             3             4             5 
      1  0.162911D+00
      2 -0.371758D-01  0.149747D+00
      3  0.151414D-01  0.257479D-02  0.148377D+00
      4 -0.234976D-02  0.527951D-02  0.621866D-03  0.174203D+00
      5  0.329468D-02  0.503662D-02 -0.780769D-03 -0.612595D-02  0.145048D+00
      6 -0.805857D-02  0.401335D-02  0.310654D-02  0.448223D-01 -0.137735D-01
      7 -0.269060D-01  0.216823D-01 -0.533256D-03 -0.365838D-02 -0.565878D-03
      8 -0.150438D-01 -0.626142D-01 -0.170884D-01 -0.583469D-02  0.442316D-02
      9 -0.116546D-01 -0.612157D-02 -0.230176D-01 -0.670206D-02  0.834485D-03
     10 -0.113230D-02  0.285701D-02 -0.181180D-02 -0.227964D-01 -0.152916D-02
     11  0.777434D-02  0.933027D-03 -0.690171D-03  0.112897D-01 -0.178151D-01
     12  0.541120D-02 -0.490605D-02  0.420837D-02  0.970931D-02 -0.160673D-01
     13 -0.823634D-02  0.181919D-04  0.270169D-02 -0.243021D-01  0.573714D-02
     14  0.694567D-03  0.108028D-02  0.215662D-02 -0.152401D-01 -0.318211D-01
     15  0.245269D-02  0.227164D-02  0.701006D-02  0.893520D-02  0.247782D-01
     16 -0.271758D-01  0.213625D-01 -0.200521D-01 -0.492077D-01 -0.269792D-02
     17  0.481401D-02 -0.403385D-01  0.306593D-01  0.399932D-02 -0.167738D-01
     18  0.110616D-01  0.120226D-01 -0.556159D-01 -0.162934D-01  0.342752D-02
     19  0.191808D-02  0.120724D-02  0.897888D-03 -0.343645D-01 -0.308005D-01
     20  0.648294D-02 -0.243869D-02  0.335570D-02  0.275611D-02 -0.420846D-01
     21 -0.124451D-02  0.452763D-02  0.837798D-02 -0.156062D-01 -0.139077D-01
     22 -0.408125D-01  0.574705D-02  0.317013D-01  0.203764D-02  0.128503D-02
     23  0.177526D-01 -0.222243D-01 -0.190506D-01  0.270460D-02  0.516136D-02
     24  0.657424D-02  0.735615D-02 -0.552762D-01 -0.865036D-02  0.291895D-02
     25 -0.582165D-01 -0.209780D-01 -0.286671D-01 -0.395622D-01  0.314026D-01
     26  0.114065D-01 -0.291814D-01 -0.113651D-02  0.117153D-02 -0.511746D-01
     27 -0.196835D-01 -0.217386D-01 -0.371700D-01 -0.168367D-01  0.125701D-01
                6             7             8             9            10 
      6  0.156382D+00
      7 -0.901848D-02  0.179213D+00
      8 -0.367050D-02  0.326576D-01  0.182034D+00
      9  0.203660D-02  0.294350D-01  0.586206D-02  0.147405D+00
     10 -0.192938D-01 -0.502192D-01  0.127136D-01  0.167021D-01  0.153854D+00
     11 -0.110725D-02 -0.146722D-01 -0.238782D-01 -0.458955D-02 -0.291160D-01
     12 -0.349660D-01 -0.750727D-02 -0.898681D-02 -0.210862D-01 -0.312424D-01
     13 -0.216558D-01 -0.175581D-02 -0.755122D-02 -0.338109D-02 -0.222239D-01
     14  0.125924D-01 -0.424559D-02  0.101280D-02 -0.370047D-02 -0.221157D-01
     15 -0.439575D-01  0.386340D-02  0.183364D-02  0.479685D-02  0.682025D-03
     16  0.211682D-01 -0.245312D-01 -0.118565D-01 -0.154555D-01  0.987542D-03
     17  0.211629D-02 -0.418342D-02 -0.209588D-01 -0.172589D-01  0.807274D-03
     18 -0.319664D-01  0.136874D-01  0.706201D-03 -0.433541D-01  0.887815D-02
     19 -0.618388D-02 -0.399316D-01  0.213102D-01 -0.262872D-01 -0.257775D-01
     20  0.113804D-01 -0.108011D-01 -0.350017D-01 -0.241427D-02  0.888959D-02
     21 -0.241846D-01 -0.149011D-01  0.237708D-01 -0.362522D-01  0.112402D-01
     22  0.321744D-03 -0.346972D-01 -0.255961D-01  0.159446D-01 -0.360283D-01
     23  0.121185D-02 -0.121757D-01 -0.441982D-01  0.308872D-01  0.212922D-01
     24 -0.284203D-02 -0.100222D-01  0.389256D-02 -0.335338D-01  0.104038D-01
     25 -0.210172D-02  0.248648D-02 -0.799038D-03  0.139886D-02  0.333624D-02
     26 -0.127631D-01 -0.769598D-02 -0.818714D-03 -0.349901D-02  0.620120D-02
     27 -0.236089D-01 -0.500349D-02 -0.631952D-02  0.300565D-02  0.444172D-02
               11            12            13            14            15 
     11  0.176495D+00
     12  0.159651D-01  0.157875D+00
     13  0.862651D-02  0.112732D-01  0.148871D+00
     14 -0.611033D-01  0.857842D-03  0.353156D-01  0.139329D+00
     15 -0.197276D-01 -0.271658D-01 -0.115175D-01 -0.559521D-02  0.145196D+00
     16  0.499312D-02  0.716765D-02 -0.516385D-03 -0.392321D-02  0.210192D-03
     17  0.390398D-02  0.378514D-03 -0.307860D-02  0.443073D-02  0.352103D-03
     18 -0.618853D-02 -0.361354D-02  0.901256D-02  0.601393D-02  0.274050D-03
     19 -0.131216D-01  0.218061D-01  0.224614D-02  0.335469D-03  0.868399D-03
     20 -0.327905D-01 -0.698260D-02 -0.539732D-02 -0.247288D-02  0.513564D-02
     21  0.264192D-01 -0.447273D-01  0.300134D-02  0.411363D-02  0.664586D-02
     22  0.253134D-01 -0.149436D-01 -0.551066D-01 -0.337262D-02 -0.327101D-01
     23 -0.446147D-01  0.253915D-01 -0.231050D-01 -0.225739D-01 -0.120597D-01
     24 -0.437940D-02 -0.318990D-01 -0.773996D-02  0.880793D-02 -0.429991D-01
     25 -0.108725D-02 -0.167427D-02 -0.389765D-01  0.125516D-01  0.272157D-01
     26 -0.112982D-02 -0.565021D-02 -0.105654D-01 -0.278821D-01  0.301131D-02
     27 -0.570176D-02  0.137431D-02  0.183055D-01 -0.252467D-01 -0.498007D-01
               16            17            18            19            20 
     16  0.163245D+00
     17 -0.123302D-02  0.167268D+00
     18 -0.342151D-01 -0.171079D-01  0.206477D+00
     19 -0.301377D-01  0.238740D-01  0.659069D-02  0.107452D+00
     20  0.445679D-03 -0.473308D-01  0.111645D-01 -0.300299D-02  0.168730D+00
     21  0.151916D-01 -0.236675D-01 -0.337619D-01  0.494601D-02 -0.252259D-01
     22  0.423451D-02 -0.173004D-03 -0.304839D-02  0.881614D-02  0.121397D-02
     23 -0.220935D-02  0.515170D-02  0.219409D-02  0.126925D-03 -0.894945D-03
     24  0.650866D-02  0.328654D-02 -0.545049D-02 -0.138042D-02  0.778135D-02
     25 -0.368986D-01 -0.248265D-01  0.432650D-02  0.977848D-02 -0.586858D-03
     26 -0.488131D-02 -0.553526D-01 -0.122324D-01  0.712890D-04 -0.571554D-02
     27  0.194764D-01  0.212415D-01 -0.329884D-01 -0.125765D-02 -0.419478D-02
               21            22            23            24            25 
     21  0.120441D+00
     22 -0.148037D-02  0.143414D+00
     23  0.108594D-02 -0.400879D-02  0.124596D+00
     24 -0.635773D-03  0.682866D-02 -0.271792D-01  0.179685D+00
     25 -0.114698D-02  0.814260D-02 -0.377585D-03 -0.252249D-02  0.149910D+00
     26  0.288390D-02 -0.408937D-03 -0.403434D-03 -0.248490D-02  0.470104D-02
     27  0.409731D-02 -0.261389D-02 -0.248118D-02 -0.704832D-02  0.317152D-02
               26            27 
     26  0.171658D+00
     27  0.318710D-01  0.142139D+00
 Leave Link  716 at Tue Mar  6 15:36:38 2018, MaxMem=   536870912 cpu:         0.1
 (Enter /share/apps//mg09/l103.exe)

 GradGradGradGradGradGradGradGradGradGradGradGradGradGradGradGradGradGrad
 Berny optimization.
 Search for a local minimum.
 Step number   1 out of a maximum of  100
 All quantities printed in internal units (Hartrees-Bohrs-Radians)
 Second derivative matrix not updated -- first step.
 ITU=  0
     Eigenvalues ---    0.08653   0.11316   0.12053   0.13003   0.14330
     Eigenvalues ---    0.14731   0.15201   0.15638   0.15988   0.16693
     Eigenvalues ---    0.17261   0.22859   0.23608   0.24053   0.24906
     Eigenvalues ---    0.25223   0.27143   0.27938   0.28208   0.28912
     Eigenvalues ---    0.31981
 RFO step:  Lambda=-7.91298548D-03 EMin= 8.65303155D-02
 Linear search not attempted -- first point.
 TrRot=  0.001270 -0.002003 -0.000363 -0.800413  0.000152  0.800410
 Variable       Old X    -DE/DX   Delta X   Delta X   Delta X     New X
                                 (Linear)    (Quad)   (Total)
    X1       -3.96081   0.00856   0.00000   0.05667   0.05795  -3.90285
    Y1        2.98941  -0.00476   0.00000  -0.02800  -0.03000   2.95941
    Z1        0.09131   0.00156   0.00000   0.00296   0.00333   0.09463
    X2        3.52516  -0.01352   0.00000  -0.07274  -0.07110   3.45406
    Y2       -0.34709   0.00251   0.00000   0.01051   0.00811  -0.33898
    Z2        3.62531  -0.00628   0.00000  -0.04238  -0.04314   3.58216
    X3       -3.39272   0.00682   0.00000   0.04245   0.04357  -3.34915
    Y3       -2.46172   0.00484   0.00000   0.03299   0.03114  -2.43057
    Z3       -1.38788   0.00340   0.00000   0.02336   0.02309  -1.36479
    X4        2.54813  -0.00498   0.00000  -0.03212  -0.03110   2.51702
    Y4       -2.49293   0.00486   0.00000   0.03245   0.03070  -2.46223
    Z4       -2.37345   0.00475   0.00000   0.03654   0.03565  -2.33780
    X5        3.60041  -0.00763   0.00000  -0.05716  -0.05601   3.54440
    Y5        2.98653  -0.00424   0.00000  -0.02631  -0.02820   2.95833
    Z5       -1.19280   0.00309   0.00000   0.02200   0.02159  -1.17122
    X6       -2.24492   0.01131   0.00000   0.05583   0.05754  -2.18738
    Y6       -0.26517   0.00348   0.00000   0.01387   0.01141  -0.25376
    Z6        4.27405  -0.01017   0.00000  -0.05530  -0.05546   4.21859
    X7        0.16744  -0.00076   0.00000  -0.00563  -0.00413   0.16331
    Y7       -4.89656   0.01222   0.00000   0.08785   0.08559  -4.81097
    Z7        2.38821  -0.00236   0.00000  -0.01509  -0.01599   2.37222
    X8       -0.78681   0.00202   0.00000   0.01008   0.01091  -0.77590
    Y8        1.71912  -0.00413   0.00000  -0.02260  -0.02415   1.69497
    Z8       -4.22533   0.01028   0.00000   0.05570   0.05560  -4.16972
    X9        0.38752  -0.00181   0.00000  -0.00926  -0.00764   0.37987
    Y9        4.09028  -0.01478   0.00000  -0.08226  -0.08461   4.00568
    Z9        3.16812  -0.00427   0.00000  -0.02470  -0.02466   3.14346
         Item               Value     Threshold  Converged?
 Maximum Force            0.014783     0.000450     NO 
 RMS     Force            0.007020     0.000300     NO 
 Maximum Displacement     0.085591     0.001800     NO 
 RMS     Displacement     0.042148     0.001200     NO 
 Predicted change in Energy=-4.146518D-03
 Lowest energy point so far.  Saving SCF results.
 GradGradGradGradGradGradGradGradGradGradGradGradGradGradGradGradGradGrad

 Leave Link  103 at Tue Mar  6 15:36:38 2018, MaxMem=   536870912 cpu:         0.1
 (Enter /share/apps//mg09/l202.exe)
                          Input orientation:                          
 ---------------------------------------------------------------------
 Center     Atomic      Atomic             Coordinates (Angstroms)
 Number     Number       Type             X           Y           Z
 ---------------------------------------------------------------------
      1         83           0       -2.065301    1.566051    0.050079
      2         50           0        1.827809   -0.179382    1.895600
      3         83           0       -1.772296   -1.286204   -0.722218
      4         83           0        1.331952   -1.302958   -1.237110
      5         83           0        1.875617    1.565480   -0.619782
      6         32           0       -1.157511   -0.134283    2.232384
      7         50           0        0.086421   -2.545854    1.255323
      8         32           0       -0.410591    0.896940   -2.206523
      9         32           0        0.201020    2.119712    1.663447
 ---------------------------------------------------------------------
                    Distance matrix (angstroms):
                    1          2          3          4          5
     1  Bi   0.000000
     2  Sn   4.648526   0.000000
     3  Bi   2.969454   4.586805   0.000000
     4  Bi   4.629189   3.364843   3.146704   0.000000
     5  Bi   3.997443   3.061695   4.631400   2.984058   0.000000
     6  Ge   2.911645   3.004596   3.230257   4.427259   4.497101
     7  Sn   4.794818   3.007087   2.992025   3.050961   4.860073
     8  Ge   2.877156   4.795447   2.970441   2.969135   2.862069
     9  Ge   2.836496   2.825982   4.602787   4.626761   2.885236
                    6          7          8          9
     6  Ge   0.000000
     7  Sn   2.884041   0.000000
     8  Ge   4.617922   4.907568   0.000000
     9  Ge   2.692543   4.684785   4.104377   0.000000
 Stoichiometry    Bi4Ge3Sn2
 Framework group  C1[X(Bi4Ge3Sn2)]
 Deg. of freedom    21
 Full point group                 C1      NOp   1
 RotChk:  IX=0 Diff= 2.47D-03
 Largest Abelian subgroup         C1      NOp   1
 Largest concise Abelian subgroup C1      NOp   1
                         Standard orientation:                         
 ---------------------------------------------------------------------
 Center     Atomic      Atomic             Coordinates (Angstroms)
 Number     Number       Type             X           Y           Z
 ---------------------------------------------------------------------
      1         83           0        2.067409   -1.560567    0.046870
      2         50           0       -1.828743    0.178066    1.892391
      3         83           0        1.769424    1.291172   -0.725427
      4         83           0       -1.334848    1.302505   -1.240319
      5         83           0       -1.873504   -1.566878   -0.622991
      6         32           0        1.156651    0.138179    2.229175
      7         50           0       -0.091490    2.547574    1.252114
      8         32           0        0.411533   -0.894346   -2.209732
      9         32           0       -0.197942   -2.118185    1.660238
 ---------------------------------------------------------------------
 Rotational constants (GHZ):      0.1023691      0.0969341      0.0835355
 Leave Link  202 at Tue Mar  6 15:36:40 2018, MaxMem=   536870912 cpu:         0.0
 (Enter /share/apps//mg09/l301.exe)
 Standard basis: def2TZVP (5D, 7F)
 Ernie: Thresh=  0.10000D-02 Tol=  0.10000D-05 Strict=F.
 There are   519 symmetry adapted cartesian basis functions of A   symmetry.
 There are   444 symmetry adapted basis functions of A   symmetry.
   444 basis functions,   963 primitive gaussians,   519 cartesian basis functions
   116 alpha electrons      116 beta electrons
       nuclear repulsion energy      3596.8385617526 Hartrees.
 IExCor= 1009 DFT=T Ex+Corr=PBE1PBE ExCW=0 ScaHFX=  0.250000
 ScaDFX=  0.750000  0.750000  1.000000  1.000000 ScalE2=  1.000000  1.000000
 IRadAn=      0 IRanWt=     -1 IRanGd=            0 ICorTp=0 IEmpDi=  4
 NAtoms=    9 NActive=    9 NUniq=    9 SFac= 1.00D+00 NAtFMM=   60 NAOKFM=F Big=F
 Integral buffers will be    131072 words long.
 Raffenetti 2 integral format.
 Two-electron integral symmetry is turned on.
 Leave Link  301 at Tue Mar  6 15:36:40 2018, MaxMem=   536870912 cpu:         0.2
 (Enter /share/apps//mg09/l302.exe)
 NPDir=0 NMtPBC=     1 NCelOv=     1 NCel=       1 NClECP=     1 NCelD=      1
         NCelK=      1 NCelE2=     1 NClLst=     1 CellRange=     0.0.
 One-electron integrals computed using PRISM.
   1 Symmetry operations used in ECPInt.
 ECPInt:  NShTT=   10440 NPrTT=   41973 LenC2=    9685 LenP2D=   27637.
 LDataN:  DoStor=T MaxTD1= 8 Len=  415
 NBasis=   444 RedAO= T EigKep=  1.12D-03  NBF=   444
 NBsUse=   444 1.00D-06 EigRej= -1.00D+00 NBFU=   444
 Precomputing XC quadrature grid using
 IXCGrd= 4 IRadAn=           0 IRanWt=          -1 IRanGd=           0 AccXCQ= 0.00D+00.
 Defaulting to unpruned grid for atomic number  83.
 Defaulting to unpruned grid for atomic number  83.
 Defaulting to unpruned grid for atomic number  50.
 Generated NRdTot=       0 NPtTot=           0 NUsed=           0 NTot=          32
 NSgBfM=   505   505   505   505   505 MxSgAt=     9 MxSgA2=     9.
 Leave Link  302 at Tue Mar  6 15:36:48 2018, MaxMem=   536870912 cpu:        32.7
 (Enter /share/apps//mg09/l303.exe)
 DipDrv:  MaxL=1.
 Leave Link  303 at Tue Mar  6 15:36:48 2018, MaxMem=   536870912 cpu:         0.6
 (Enter /share/apps//mg09/l401.exe)
 Initial guess from the checkpoint file:  "Isomer_44.chk"
 B after Tr=     0.000000    0.000000    0.000000
         Rot=    1.000000   -0.000123   -0.000104   -0.000910 Ang=  -0.11 deg.
 Guess basis will be translated and rotated to current coordinates.
 JPrj=2 DoOrth=T DoCkMO=T.
 Generating alternative initial guess.
 ExpMin= 4.62D-02 ExpMax= 4.66D+05 ExpMxC= 4.50D+03 IAcc=2 IRadAn=         4 AccDes= 0.00D+00
 Harris functional with IExCor= 1009 and IRadAn=       4 diagonalized for initial guess.
 HarFok:  IExCor= 1009 AccDes= 0.00D+00 IRadAn=         4 IDoV= 1 UseB2=F ITyADJ=14
 ICtDFT=  3500011 ScaDFX=  1.000000  1.000000  1.000000  1.000000
 Defaulting to unpruned grid for atomic number  83.
 Defaulting to unpruned grid for atomic number  83.
 Defaulting to unpruned grid for atomic number  83.
 Defaulting to unpruned grid for atomic number  83.
 FoFCou: FMM=F IPFlag=           0 FMFlag=      100000 FMFlg1=           0
         NFxFlg=           0 DoJE=T BraDBF=F KetDBF=T FulRan=T
         wScrn=  0.000000 ICntrl=     500 IOpCl=  0 I1Cent=   200000004 NGrid=           0
         NMat0=    1 NMatS0=      1 NMatT0=    0 NMatD0=    1 NMtDS0=    0 NMtDT0=    0
 Petite list used in FoFCou.
 Harris En= -7518.61777067268    
 Leave Link  401 at Tue Mar  6 15:36:52 2018, MaxMem=   536870912 cpu:        14.5
 (Enter /share/apps//mg09/l502.exe)
 Closed shell SCF:
 Using DIIS extrapolation, IDIIS=  1040.
 Integral symmetry usage will be decided dynamically.
 IVT=     1410107 IEndB=     1410107 NGot=   536870912 MDV=   536322046
 LenX=   536322046 LenY=   536052166
 Requested convergence on RMS density matrix=1.00D-08 within 768 cycles.
 Requested convergence on MAX density matrix=1.00D-06.
 Requested convergence on             energy=1.00D-06.
 No special actions if energy rises.
 Fock matrices will be formed incrementally for  20 cycles.

 Cycle   1  Pass 1  IDiag  1:
 FoFJK:  IHMeth= 1 ICntrl=       0 DoSepK=F KAlg= 0 I1Cent=   0 FoldK=F
 IRaf= 880000000 NMat=   1 IRICut=       1 DoRegI=T DoRafI=F ISym2E= 0.
 FoFCou: FMM=F IPFlag=           0 FMFlag=      100000 FMFlg1=           0
         NFxFlg=           0 DoJE=F BraDBF=F KetDBF=F FulRan=T
         wScrn=  0.000000 ICntrl=       0 IOpCl=  0 I1Cent=           0 NGrid=           0
         NMat0=    1 NMatS0=      1 NMatT0=    0 NMatD0=    1 NMtDS0=    0 NMtDT0=    0
 Symmetry not used in FoFCou.
 Defaulting to unpruned grid for atomic number  83.
 Defaulting to unpruned grid for atomic number  83.
 Defaulting to unpruned grid for atomic number  83.
 Defaulting to unpruned grid for atomic number  83.
 E= -7517.81403208260    
 DIIS: error= 4.95D-03 at cycle   1 NSaved=   1.
 NSaved= 1 IEnMin= 1 EnMin= -7517.81403208260     IErMin= 1 ErrMin= 4.95D-03
 ErrMax= 4.95D-03  0.00D+00 EMaxC= 1.00D-01 BMatC= 8.30D-03 BMatP= 8.30D-03
 IDIUse=3 WtCom= 9.50D-01 WtEn= 4.95D-02
 Coeff-Com:  0.100D+01
 Coeff-En:   0.100D+01
 Coeff:      0.100D+01
 Gap=     7.996 Goal=   None    Shift=    0.000
 GapD=    7.996 DampG=2.000 DampE=1.000 DampFc=2.0000 IDamp=-1.
 RMSDP=1.81D-04 MaxDP=5.78D-03              OVMax= 2.31D-02

 Cycle   2  Pass 1  IDiag  1:
 RMSU=  1.80D-04    CP:  1.00D+00
 E= -7517.81408865772     Delta-E=       -0.000056575118 Rises=F Damp=F
 DIIS: error= 1.67D-03 at cycle   2 NSaved=   2.
 NSaved= 2 IEnMin= 2 EnMin= -7517.81408865772     IErMin= 2 ErrMin= 1.67D-03
 ErrMax= 1.67D-03  0.00D+00 EMaxC= 1.00D-01 BMatC= 1.54D-03 BMatP= 8.30D-03
 IDIUse=3 WtCom= 9.83D-01 WtEn= 1.67D-02
 Coeff-Com:  0.195D+00 0.805D+00
 Coeff-En:   0.484D+00 0.516D+00
 Coeff:      0.199D+00 0.801D+00
 Gap=     0.124 Goal=   None    Shift=    0.000
 RMSDP=2.05D-04 MaxDP=8.58D-03 DE=-5.66D-05 OVMax= 1.66D-02

 Cycle   3  Pass 1  IDiag  1:
 RMSU=  1.86D-04    CP:  9.99D-01  5.38D-01
 E= -7517.81238756147     Delta-E=        0.001701096247 Rises=F Damp=F
 DIIS: error= 2.47D-03 at cycle   3 NSaved=   3.
 NSaved= 3 IEnMin= 2 EnMin= -7517.81408865772     IErMin= 2 ErrMin= 1.67D-03
 ErrMax= 2.47D-03  0.00D+00 EMaxC= 1.00D-01 BMatC= 3.58D-03 BMatP= 1.54D-03
 IDIUse=3 WtCom= 1.68D-01 WtEn= 8.32D-01
 Coeff-Com:  0.537D-02 0.603D+00 0.392D+00
 Coeff-En:   0.000D+00 0.658D+00 0.342D+00
 Coeff:      0.900D-03 0.649D+00 0.350D+00
 Gap=     0.126 Goal=   None    Shift=    0.000
 RMSDP=1.10D-04 MaxDP=4.99D-03 DE= 1.70D-03 OVMax= 1.15D-02

 Cycle   4  Pass 1  IDiag  1:
 RMSU=  3.44D-05    CP:  9.99D-01  7.98D-01  5.03D-01
 E= -7517.81517808454     Delta-E=       -0.002790523069 Rises=F Damp=F
 DIIS: error= 4.10D-04 at cycle   4 NSaved=   4.
 NSaved= 4 IEnMin= 4 EnMin= -7517.81517808454     IErMin= 4 ErrMin= 4.10D-04
 ErrMax= 4.10D-04  0.00D+00 EMaxC= 1.00D-01 BMatC= 1.55D-04 BMatP= 1.54D-03
 IDIUse=3 WtCom= 9.96D-01 WtEn= 4.10D-03
 Coeff-Com: -0.575D-04 0.421D+00 0.227D+00 0.353D+00
 Coeff-En:   0.000D+00 0.564D-01 0.000D+00 0.944D+00
 Coeff:     -0.572D-04 0.419D+00 0.226D+00 0.355D+00
 Gap=     0.125 Goal=   None    Shift=    0.000
 RMSDP=3.42D-05 MaxDP=1.33D-03 DE=-2.79D-03 OVMax= 3.74D-03

 Cycle   5  Pass 1  IDiag  1:
 RMSU=  1.54D-05    CP:  9.99D-01  8.55D-01  4.52D-01  2.16D-01
 E= -7517.81529089041     Delta-E=       -0.000112805865 Rises=F Damp=F
 DIIS: error= 1.33D-04 at cycle   5 NSaved=   5.
 NSaved= 5 IEnMin= 5 EnMin= -7517.81529089041     IErMin= 5 ErrMin= 1.33D-04
 ErrMax= 1.33D-04  0.00D+00 EMaxC= 1.00D-01 BMatC= 1.95D-05 BMatP= 1.55D-04
 IDIUse=3 WtCom= 9.99D-01 WtEn= 1.33D-03
 Coeff-Com: -0.936D-03 0.222D+00 0.106D+00 0.288D+00 0.386D+00
 Coeff-En:   0.000D+00 0.000D+00 0.000D+00 0.169D+00 0.831D+00
 Coeff:     -0.935D-03 0.222D+00 0.106D+00 0.288D+00 0.386D+00
 Gap=     0.126 Goal=   None    Shift=    0.000
 RMSDP=1.14D-05 MaxDP=6.06D-04 DE=-1.13D-04 OVMax= 1.24D-03

 Cycle   6  Pass 1  IDiag  1:
 RMSU=  3.79D-06    CP:  9.99D-01  8.62D-01  4.45D-01  4.42D-01  5.38D-01
 E= -7517.81531291453     Delta-E=       -0.000022024129 Rises=F Damp=F
 DIIS: error= 1.20D-05 at cycle   6 NSaved=   6.
 NSaved= 6 IEnMin= 6 EnMin= -7517.81531291453     IErMin= 6 ErrMin= 1.20D-05
 ErrMax= 1.20D-05  0.00D+00 EMaxC= 1.00D-01 BMatC= 2.92D-07 BMatP= 1.95D-05
 IDIUse=1 WtCom= 1.00D+00 WtEn= 0.00D+00
 Coeff-Com: -0.372D-03 0.583D-01 0.278D-01 0.917D-01 0.164D+00 0.658D+00
 Coeff:     -0.372D-03 0.583D-01 0.278D-01 0.917D-01 0.164D+00 0.658D+00
 Gap=     0.126 Goal=   None    Shift=    0.000
 RMSDP=2.34D-06 MaxDP=1.85D-04 DE=-2.20D-05 OVMax= 3.37D-04

 Cycle   7  Pass 1  IDiag  1:
 RMSU=  1.90D-06    CP:  9.99D-01  8.65D-01  4.48D-01  4.37D-01  5.99D-01
                    CP:  9.23D-01
 E= -7517.81531302347     Delta-E=       -0.000000108934 Rises=F Damp=F
 DIIS: error= 9.69D-06 at cycle   7 NSaved=   7.
 NSaved= 7 IEnMin= 7 EnMin= -7517.81531302347     IErMin= 7 ErrMin= 9.69D-06
 ErrMax= 9.69D-06  0.00D+00 EMaxC= 1.00D-01 BMatC= 1.60D-07 BMatP= 2.92D-07
 IDIUse=1 WtCom= 1.00D+00 WtEn= 0.00D+00
 Coeff-Com: -0.913D-04-0.484D-03 0.465D-03 0.123D-01 0.446D-01 0.468D+00
 Coeff-Com:  0.476D+00
 Coeff:     -0.913D-04-0.484D-03 0.465D-03 0.123D-01 0.446D-01 0.468D+00
 Coeff:      0.476D+00
 Gap=     0.126 Goal=   None    Shift=    0.000
 RMSDP=1.71D-06 MaxDP=6.81D-05 DE=-1.09D-07 OVMax= 2.14D-04

 Cycle   8  Pass 1  IDiag  1:
 RMSU=  1.01D-06    CP:  9.99D-01  8.66D-01  4.50D-01  4.40D-01  6.13D-01
                    CP:  1.10D+00  4.10D-01
 E= -7517.81531312427     Delta-E=       -0.000000100805 Rises=F Damp=F
 DIIS: error= 6.99D-06 at cycle   8 NSaved=   8.
 NSaved= 8 IEnMin= 8 EnMin= -7517.81531312427     IErMin= 8 ErrMin= 6.99D-06
 ErrMax= 6.99D-06  0.00D+00 EMaxC= 1.00D-01 BMatC= 7.62D-08 BMatP= 1.60D-07
 IDIUse=1 WtCom= 1.00D+00 WtEn= 0.00D+00
 Coeff-Com:  0.128D-04-0.151D-01-0.636D-02-0.116D-01-0.192D-02 0.244D+00
 Coeff-Com:  0.424D+00 0.367D+00
 Coeff:      0.128D-04-0.151D-01-0.636D-02-0.116D-01-0.192D-02 0.244D+00
 Coeff:      0.424D+00 0.367D+00
 Gap=     0.126 Goal=   None    Shift=    0.000
 RMSDP=8.35D-07 MaxDP=3.76D-05 DE=-1.01D-07 OVMax= 9.50D-05

 Cycle   9  Pass 1  IDiag  1:
 RMSU=  2.88D-07    CP:  9.99D-01  8.66D-01  4.51D-01  4.44D-01  6.16D-01
                    CP:  1.12D+00  6.17D-01  3.76D-01
 E= -7517.81531322523     Delta-E=       -0.000000100961 Rises=F Damp=F
 DIIS: error= 1.64D-06 at cycle   9 NSaved=   9.
 NSaved= 9 IEnMin= 9 EnMin= -7517.81531322523     IErMin= 9 ErrMin= 1.64D-06
 ErrMax= 1.64D-06  0.00D+00 EMaxC= 1.00D-01 BMatC= 3.24D-09 BMatP= 7.62D-08
 IDIUse=1 WtCom= 1.00D+00 WtEn= 0.00D+00
 Coeff-Com:  0.205D-04-0.957D-02-0.402D-02-0.888D-02-0.738D-02 0.933D-01
 Coeff-Com:  0.217D+00 0.232D+00 0.488D+00
 Coeff:      0.205D-04-0.957D-02-0.402D-02-0.888D-02-0.738D-02 0.933D-01
 Coeff:      0.217D+00 0.232D+00 0.488D+00
 Gap=     0.126 Goal=   None    Shift=    0.000
 RMSDP=1.98D-07 MaxDP=1.09D-05 DE=-1.01D-07 OVMax= 2.73D-05

 Cycle  10  Pass 1  IDiag  1:
 RMSU=  1.24D-07    CP:  9.99D-01  8.66D-01  4.51D-01  4.45D-01  6.21D-01
                    CP:  1.12D+00  6.41D-01  4.58D-01  7.31D-01
 E= -7517.81531322837     Delta-E=       -0.000000003140 Rises=F Damp=F
 DIIS: error= 5.37D-07 at cycle  10 NSaved=  10.
 NSaved=10 IEnMin=10 EnMin= -7517.81531322837     IErMin=10 ErrMin= 5.37D-07
 ErrMax= 5.37D-07  0.00D+00 EMaxC= 1.00D-01 BMatC= 4.82D-10 BMatP= 3.24D-09
 IDIUse=1 WtCom= 1.00D+00 WtEn= 0.00D+00
 Coeff-Com:  0.119D-04-0.481D-02-0.198D-02-0.467D-02-0.475D-02 0.377D-01
 Coeff-Com:  0.101D+00 0.119D+00 0.326D+00 0.433D+00
 Coeff:      0.119D-04-0.481D-02-0.198D-02-0.467D-02-0.475D-02 0.377D-01
 Coeff:      0.101D+00 0.119D+00 0.326D+00 0.433D+00
 Gap=     0.126 Goal=   None    Shift=    0.000
 RMSDP=1.01D-07 MaxDP=3.85D-06 DE=-3.14D-09 OVMax= 1.16D-05

 Cycle  11  Pass 1  IDiag  1:
 RMSU=  7.73D-08    CP:  9.99D-01  8.66D-01  4.51D-01  4.45D-01  6.22D-01
                    CP:  1.12D+00  6.41D-01  4.63D-01  8.06D-01  5.34D-01
 E= -7517.81531322878     Delta-E=       -0.000000000404 Rises=F Damp=F
 DIIS: error= 4.09D-07 at cycle  11 NSaved=  11.
 NSaved=11 IEnMin=11 EnMin= -7517.81531322878     IErMin=11 ErrMin= 4.09D-07
 ErrMax= 4.09D-07  0.00D+00 EMaxC= 1.00D-01 BMatC= 2.89D-10 BMatP= 4.82D-10
 IDIUse=1 WtCom= 1.00D+00 WtEn= 0.00D+00
 Coeff-Com:  0.126D-05 0.557D-04 0.724D-04-0.144D-03-0.100D-02-0.854D-02
 Coeff-Com: -0.958D-02 0.237D-02 0.752D-01 0.449D+00 0.493D+00
 Coeff:      0.126D-05 0.557D-04 0.724D-04-0.144D-03-0.100D-02-0.854D-02
 Coeff:     -0.958D-02 0.237D-02 0.752D-01 0.449D+00 0.493D+00
 Gap=     0.126 Goal=   None    Shift=    0.000
 RMSDP=5.51D-08 MaxDP=2.42D-06 DE=-4.04D-10 OVMax= 7.31D-06

 Cycle  12  Pass 1  IDiag  1:
 RMSU=  1.86D-08    CP:  9.99D-01  8.66D-01  4.51D-01  4.45D-01  6.22D-01
                    CP:  1.13D+00  6.43D-01  4.67D-01  8.41D-01  8.08D-01
                    CP:  6.11D-01
 E= -7517.81531322908     Delta-E=       -0.000000000307 Rises=F Damp=F
 DIIS: error= 7.23D-08 at cycle  12 NSaved=  12.
 NSaved=12 IEnMin=12 EnMin= -7517.81531322908     IErMin=12 ErrMin= 7.23D-08
 ErrMax= 7.23D-08  0.00D+00 EMaxC= 1.00D-01 BMatC= 8.27D-12 BMatP= 2.89D-10
 IDIUse=1 WtCom= 1.00D+00 WtEn= 0.00D+00
 Coeff-Com: -0.426D-06 0.481D-03 0.224D-03 0.367D-03-0.970D-04-0.816D-02
 Coeff-Com: -0.145D-01-0.988D-02 0.114D-01 0.208D+00 0.262D+00 0.550D+00
 Coeff:     -0.426D-06 0.481D-03 0.224D-03 0.367D-03-0.970D-04-0.816D-02
 Coeff:     -0.145D-01-0.988D-02 0.114D-01 0.208D+00 0.262D+00 0.550D+00
 Gap=     0.126 Goal=   None    Shift=    0.000
 RMSDP=1.08D-08 MaxDP=7.46D-07 DE=-3.07D-10 OVMax= 1.61D-06

 Cycle  13  Pass 1  IDiag  1:
 RMSU=  6.79D-09    CP:  9.99D-01  8.66D-01  4.51D-01  4.45D-01  6.22D-01
                    CP:  1.13D+00  6.44D-01  4.69D-01  8.48D-01  8.35D-01
                    CP:  6.60D-01  7.38D-01
 E= -7517.81531322915     Delta-E=       -0.000000000060 Rises=F Damp=F
 DIIS: error= 2.22D-08 at cycle  13 NSaved=  13.
 NSaved=13 IEnMin=13 EnMin= -7517.81531322915     IErMin=13 ErrMin= 2.22D-08
 ErrMax= 2.22D-08  0.00D+00 EMaxC= 1.00D-01 BMatC= 1.09D-12 BMatP= 8.27D-12
 IDIUse=1 WtCom= 1.00D+00 WtEn= 0.00D+00
 Coeff-Com: -0.377D-06 0.256D-03 0.113D-03 0.217D-03 0.874D-04-0.342D-02
 Coeff-Com: -0.665D-02-0.621D-02-0.370D-02 0.569D-01 0.821D-01 0.300D+00
 Coeff-Com:  0.580D+00
 Coeff:     -0.377D-06 0.256D-03 0.113D-03 0.217D-03 0.874D-04-0.342D-02
 Coeff:     -0.665D-02-0.621D-02-0.370D-02 0.569D-01 0.821D-01 0.300D+00
 Coeff:      0.580D+00
 Gap=     0.126 Goal=   None    Shift=    0.000
 RMSDP=3.84D-09 MaxDP=2.79D-07 DE=-6.00D-11 OVMax= 4.93D-07

 SCF Done:  E(RPBE1PBE) =  -7517.81531323     A.U. after   13 cycles
            NFock= 13  Conv=0.38D-08     -V/T= 2.1284
 KE= 6.662170984549D+03 PE=-2.478508659962D+04 EE= 7.008261740092D+03
 Leave Link  502 at Tue Mar  6 15:49:27 2018, MaxMem=   536870912 cpu:      2826.5
 (Enter /share/apps//mg09/l701.exe)
 Compute integral first derivatives.
 ... and contract with generalized density number  0.
   1 Symmetry operations used in ECPInt.
 ECPInt:  NShTT=   10440 NPrTT=   41973 LenC2=    9685 LenP2D=   27637.
 LDataN:  DoStor=T MaxTD1= 9 Len=  602
 Leave Link  701 at Tue Mar  6 15:49:55 2018, MaxMem=   536870912 cpu:        91.8
 (Enter /share/apps//mg09/l702.exe)
 L702 exits ... SP integral derivatives will be done elsewhere.
 Leave Link  702 at Tue Mar  6 15:49:55 2018, MaxMem=   536870912 cpu:         0.1
 (Enter /share/apps//mg09/l703.exe)
 Compute integral first derivatives, UseDBF=F ICtDFT=           0.
 Integral derivatives from FoFJK, PRISM(SPDF).
 Calling FoFJK, ICntrl=      2127 FMM=F ISym2X=0 I1Cent= 0 IOpClX= 0 NMat=1 NMatS=1 NMatT=0.
 FoFJK:  IHMeth= 1 ICntrl=    2127 DoSepK=F KAlg= 0 I1Cent=   0 FoldK=F
 IRaf=         0 NMat=   1 IRICut=       1 DoRegI=T DoRafI=F ISym2E= 0.
 FoFCou: FMM=F IPFlag=           0 FMFlag=      100000 FMFlg1=         800
         NFxFlg=           0 DoJE=F BraDBF=F KetDBF=F FulRan=T
         wScrn=  0.000000 ICntrl=    2127 IOpCl=  0 I1Cent=           0 NGrid=           0
         NMat0=    1 NMatS0=      1 NMatT0=    0 NMatD0=    1 NMtDS0=    0 NMtDT0=    0
 Symmetry not used in FoFCou.
 Defaulting to unpruned grid for atomic number  83.
 Defaulting to unpruned grid for atomic number  83.
 Defaulting to unpruned grid for atomic number  83.
 Defaulting to unpruned grid for atomic number  83.
 Leave Link  703 at Tue Mar  6 15:53:30 2018, MaxMem=   536870912 cpu:       801.2
 (Enter /share/apps//mg09/l716.exe)
 Dipole        =-1.72777743D-02 3.79938158D-01-4.67648331D-01
 ***** Axes restored to original set *****
 -------------------------------------------------------------------
 Center     Atomic                   Forces (Hartrees/Bohr)
 Number     Number              X              Y              Z
 -------------------------------------------------------------------
      1       83           0.002797144   -0.000110604    0.001178284
      2       50          -0.007065584    0.001195002   -0.002435581
      3       83           0.001403805    0.000893879    0.000451568
      4       83          -0.000917825    0.000853303    0.000710350
      5       83          -0.002493708    0.000392580    0.001039835
      6       32           0.006991231    0.002340303   -0.005483583
      7       50          -0.000491955    0.004902198    0.000557770
      8       32           0.001037034   -0.002486215    0.005036638
      9       32          -0.001260142   -0.007980446   -0.001055280
 -------------------------------------------------------------------
 Cartesian Forces:  Max     0.007980446 RMS     0.003260493
 Leave Link  716 at Tue Mar  6 15:53:30 2018, MaxMem=   536870912 cpu:         0.1
 (Enter /share/apps//mg09/l103.exe)

 GradGradGradGradGradGradGradGradGradGradGradGradGradGradGradGradGradGrad
 Berny optimization.
 Search for a local minimum.
 Step number   2 out of a maximum of  100
 All quantities printed in internal units (Hartrees-Bohrs-Radians)
 Update second derivatives using D2CorN and points    1    2
 DE= -5.68D-03 DEPred=-4.15D-03 R= 1.37D+00
 TightC=F SS=  1.41D+00  RLast= 2.19D-01 DXNew= 5.0454D-01 6.5703D-01
 Trust test= 1.37D+00 RLast= 2.19D-01 DXMaxT set to 5.05D-01
 ITU=  1  0
     Eigenvalues ---    0.08223   0.09849   0.11364   0.12197   0.13011
     Eigenvalues ---    0.14434   0.14777   0.15384   0.15911   0.16692
     Eigenvalues ---    0.17235   0.22859   0.23615   0.24048   0.24833
     Eigenvalues ---    0.25107   0.27045   0.27945   0.28202   0.28881
     Eigenvalues ---    0.31968
 RFO step:  Lambda=-4.05204932D-04 EMin= 8.22321313D-02
 Quartic linear search produced a step of  0.63802.
 TrRot=  0.000246 -0.000328  0.000014  0.000002  0.000030  0.000002
 MatCor failed.
 Variable       Old X    -DE/DX   Delta X   Delta X   Delta X     New X
                                 (Linear)    (Quad)   (Total)
    X1       -3.90285   0.00280   0.03698  -0.00096   0.03625  -3.86660
    Y1        2.95941  -0.00011  -0.01914   0.01486  -0.00463   2.95478
    Z1        0.09463   0.00118   0.00212   0.00216   0.00441   0.09905
    X2        3.45406  -0.00707  -0.04536  -0.00805  -0.05306   3.40100
    Y2       -0.33898   0.00120   0.00517   0.00060   0.00546  -0.33352
    Z2        3.58216  -0.00244  -0.02752  -0.00160  -0.02921   3.55295
    X3       -3.34915   0.00140   0.02780  -0.00876   0.01925  -3.32990
    Y3       -2.43057   0.00089   0.01987  -0.00664   0.01288  -2.41769
    Z3       -1.36479   0.00045   0.01473  -0.00605   0.00879  -1.35600
    X4        2.51702  -0.00092  -0.01984   0.00856  -0.01109   2.50593
    Y4       -2.46223   0.00085   0.01958  -0.00816   0.01110  -2.45113
    Z4       -2.33780   0.00071   0.02274  -0.00755   0.01513  -2.32267
[...]
     X           X     X                    X                X   X                                                                   
     X           X     X                    X                X                                                                       
     X           X     X                    X                X                                                                       
                 X     X                    X                                                                                        
                 X     X                    X                                                                                        
                 X     X                    X                                                                                        
                 X     X                    X                                                                                        
                 X     X                    X                                                                                        
                 X     X                                                                                                             
                 X     X                                                                                                             
                 X     X                                                                                                             
                 X     X                                                                                                             
                 X     X                                                                                                             
                 X     X                                                                                                             
                 X                                                                                                                   
 
 ***** Axes restored to original set *****
 -------------------------------------------------------------------
 Center     Atomic                   Forces (Hartrees/Bohr)
 Number     Number              X              Y              Z
 -------------------------------------------------------------------
      1       83           0.000030662   -0.000012133   -0.000012333
      2       50          -0.000021322   -0.000010818   -0.000050791
      3       83          -0.000012471   -0.000019658   -0.000077424
      4       83           0.000045045   -0.000007968    0.000036926
      5       83           0.000003652    0.000032072    0.000009834
      6       32           0.000003446    0.000041857    0.000047019
      7       50          -0.000003488    0.000014829    0.000021591
      8       32          -0.000013310   -0.000006720   -0.000004922
      9       32          -0.000032213   -0.000031461    0.000030100
 -------------------------------------------------------------------
 Cartesian Forces:  Max     0.000077424 RMS     0.000029424
 Force constants in Cartesian coordinates: 
                1             2             3             4             5 
      1  0.648393D-01
      2 -0.213426D-01  0.752183D-01
      3  0.100273D-01  0.773208D-02  0.596994D-01
      4 -0.546756D-02 -0.259822D-02 -0.320829D-02  0.584396D-01
      5  0.178282D-03 -0.305239D-02  0.258893D-02 -0.106681D-02  0.601276D-01
      6  0.903642D-03  0.148447D-02 -0.298107D-02  0.141005D-01 -0.117238D-01
      7 -0.259018D-02  0.428083D-02 -0.337254D-02 -0.608698D-02 -0.313392D-02
      8  0.443630D-02 -0.474477D-01 -0.119010D-01  0.277321D-02  0.170300D-02
      9 -0.138598D-02 -0.154030D-01 -0.344690D-02 -0.189982D-02 -0.300885D-02
     10 -0.432847D-02  0.337787D-02  0.550338D-02 -0.116749D-02  0.169456D-02
     11 -0.802991D-03 -0.348971D-02 -0.310499D-02  0.193735D-02 -0.840906D-03
     12 -0.118556D-02 -0.341421D-03  0.228398D-02 -0.131079D-02 -0.301423D-02
     13 -0.793765D-02 -0.477569D-02  0.184551D-02 -0.993263D-03 -0.249344D-02
     14  0.341729D-02  0.972450D-03 -0.306402D-02 -0.444512D-02 -0.994949D-02
     15  0.244789D-03 -0.135114D-02 -0.257389D-02 -0.535649D-03  0.162650D-01
     16 -0.387564D-02  0.114727D-01 -0.638061D-02 -0.236540D-01  0.430695D-03
     17  0.793505D-02 -0.105202D-01  0.136931D-01  0.138351D-02  0.186204D-02
     18 -0.566585D-02  0.143297D-01 -0.177254D-01 -0.732701D-04  0.211178D-02
     19  0.425142D-03  0.524341D-02  0.479782D-03 -0.977000D-02 -0.176240D-01
     20 -0.343913D-03 -0.256591D-02  0.806871D-03 -0.146328D-01 -0.225451D-01
     21  0.136087D-02  0.145182D-02 -0.141905D-02 -0.501482D-02 -0.535626D-02
     22 -0.130277D-01  0.840037D-02  0.166573D-01 -0.749287D-04  0.316201D-02
     23  0.855430D-02 -0.487964D-02 -0.395496D-02  0.161001D-02 -0.274889D-02
     24  0.143628D-01 -0.458567D-02 -0.229291D-01  0.116954D-02 -0.437160D-03
     25 -0.280372D-01 -0.405862D-02 -0.215518D-01 -0.112254D-01  0.188526D-01
     26 -0.203170D-02 -0.423529D-02 -0.279599D-02  0.150389D-01 -0.245559D-01
     27 -0.186620D-01 -0.331689D-02 -0.109080D-01 -0.322737D-02  0.257455D-02
                6             7             8             9            10 
      6  0.430703D-01
      7 -0.112227D-02  0.636621D-01
      8  0.527020D-03  0.795171D-02  0.798913D-01
      9 -0.494129D-02  0.149469D-01  0.297669D-03  0.411158D-01
     10 -0.279260D-02 -0.250475D-01 -0.161522D-02  0.521616D-02  0.516323D-01
     11 -0.443863D-02  0.129588D-02 -0.404079D-02 -0.185421D-02 -0.898838D-02
     12 -0.974037D-02  0.309782D-02 -0.157622D-02  0.156993D-02 -0.160033D-01
     13 -0.595204D-03 -0.476401D-02  0.267204D-03  0.356316D-02 -0.108125D-02
     14  0.168971D-01 -0.348589D-02 -0.346436D-02  0.940029D-03 -0.788926D-02
     15 -0.207304D-01 -0.273723D-02 -0.274621D-02  0.271049D-02  0.292171D-02
     16  0.572494D-02 -0.475349D-03 -0.314918D-02 -0.859363D-03 -0.561335D-02
     17  0.169231D-02 -0.165807D-02 -0.988554D-03 -0.371665D-03  0.251532D-02
     18 -0.247001D-02  0.130248D-02 -0.213623D-02 -0.677451D-02  0.109041D-02
     19 -0.461559D-02 -0.161619D-01  0.843900D-02 -0.185503D-01 -0.500074D-02
     20 -0.275978D-02  0.840672D-02 -0.936739D-02  0.102490D-01 -0.428463D-02
     21  0.184716D-03 -0.187311D-01  0.108555D-01 -0.180963D-01  0.115868D-01
     22 -0.697480D-02 -0.905663D-02 -0.109299D-01  0.238120D-02 -0.100075D-01
     23 -0.686873D-03 -0.132728D-01 -0.112997D-01  0.122521D-01  0.157031D-01
     24 -0.404434D-02  0.294341D-02  0.104989D-01 -0.765495D-02 -0.207283D-02
     25 -0.462858D-02  0.520556D-03 -0.817309D-02 -0.341196D-02  0.614066D-03
     26 -0.991845D-03 -0.384458D-03 -0.498586D-02 -0.310114D-02 -0.513360D-03
     27  0.165246D-02  0.367247D-02 -0.381937D-02 -0.448229D-02 -0.544967D-02
               11            12            13            14            15 
     11  0.755675D-01
     12  0.730365D-02  0.490195D-01
     13 -0.691680D-02  0.827713D-03  0.560113D-01
     14 -0.449426D-01 -0.111582D-01  0.224326D-01  0.720752D-01
     15 -0.846329D-02 -0.486416D-02 -0.373815D-02 -0.301397D-02  0.620957D-01
     16 -0.264744D-02  0.301544D-02 -0.545982D-02  0.286379D-02  0.524108D-02
     17  0.220878D-02 -0.452819D-02  0.458734D-03 -0.265309D-02  0.336304D-02
     18  0.126928D-02 -0.697006D-02 -0.637833D-03  0.124354D-02 -0.409970D-02
     19 -0.355881D-02  0.112761D-01  0.100071D-03 -0.491709D-02 -0.870019D-03
     20 -0.863711D-02  0.829226D-02  0.508545D-03 -0.176904D-02  0.584280D-03
     21  0.873790D-02 -0.214221D-01 -0.146186D-02  0.247367D-02 -0.467130D-03
     22  0.126012D-01 -0.115275D-02 -0.250529D-01 -0.937217D-02 -0.178799D-01
     23 -0.112859D-01  0.719256D-02 -0.100827D-01 -0.474036D-02 -0.175726D-02
     24  0.612419D-02 -0.638779D-02 -0.153313D-01 -0.193689D-02 -0.129032D-01
     25  0.708002D-02  0.143531D-02 -0.108225D-01  0.139589D-02  0.173533D-01
     26 -0.453928D-02 -0.217020D-02  0.601586D-03 -0.552873D-02 -0.288045D-02
     27 -0.557389D-02 -0.348890D-02  0.155280D-01 -0.238124D-02 -0.191677D-01
               16            17            18            19            20 
     16  0.489601D-01
     17 -0.294628D-02  0.653099D-01
     18 -0.125397D-01 -0.136658D-01  0.503206D-01
     19 -0.367358D-02  0.118791D-01  0.384106D-02  0.405113D-01
     20  0.897920D-02 -0.248370D-01 -0.471209D-02  0.170434D-03  0.738028D-01
     21  0.399954D-02 -0.915209D-02 -0.271076D-02  0.765963D-02 -0.126440D-01
     22  0.111899D-02 -0.380358D-02  0.583267D-02 -0.271236D-03  0.237166D-03
     23 -0.211909D-02 -0.285845D-02 -0.665680D-03  0.102914D-02 -0.110793D-02
     24 -0.296502D-02  0.849091D-03 -0.684609D-02 -0.214079D-03 -0.820353D-03
     25 -0.732739D-02 -0.157638D-01  0.685003D-02 -0.615896D-02  0.959281D-03
     26 -0.128844D-01 -0.275234D-01  0.222550D-02 -0.661159D-03 -0.297330D-02
     27  0.476369D-02  0.812025D-02 -0.272413D-02  0.993418D-03  0.100382D-02
               21            22            23            24            25 
     21  0.479424D-01
     22 -0.398953D-03  0.578804D-01
     23  0.485628D-02 -0.644590D-03  0.371943D-01
     24 -0.172022D-02  0.221219D-02 -0.124608D-01  0.661675D-01
     25  0.999913D-03 -0.150846D-02 -0.777357D-03 -0.104729D-03  0.639453D-01
     26 -0.122277D-02  0.349555D-03  0.172664D-02  0.276870D-02  0.485036D-03
     27 -0.229161D-02 -0.676980D-03 -0.477542D-02 -0.368181D-02  0.305846D-02
               26            27 
     26  0.726151D-01
     27  0.816819D-02  0.450920D-01
 Leave Link  716 at Tue Mar  6 19:31:46 2018, MaxMem=   536870912 cpu:         0.2
 (Enter /share/apps//mg09/l103.exe)

 GradGradGradGradGradGradGradGradGradGradGradGradGradGradGradGradGradGrad
 Berny optimization.
 Search for a local minimum.
 Step number   1 out of a maximum of    2
 All quantities printed in internal units (Hartrees-Bohrs-Radians)
 Second derivative matrix not updated -- analytic derivatives used.
 ITU=  0
     Eigenvalues ---    0.00605   0.01252   0.02933   0.04054   0.04168
     Eigenvalues ---    0.05076   0.05343   0.05759   0.05883   0.06244
     Eigenvalues ---    0.06747   0.06942   0.07652   0.08851   0.09770
     Eigenvalues ---    0.10278   0.12013   0.12298   0.12979   0.14227
     Eigenvalues ---    0.14897
 Angle between quadratic step and forces=  37.91 degrees.
 Linear search not attempted -- first point.
 TrRot=  0.000009  0.000013  0.000070  0.000001  0.000013  0.000001
 Variable       Old X    -DE/DX   Delta X   Delta X   Delta X     New X
                                 (Linear)    (Quad)   (Total)
    X1       -3.87874   0.00003   0.00000   0.00051   0.00052  -3.87822
    Y1        2.96652  -0.00001   0.00000  -0.00134  -0.00133   2.96519
    Z1        0.10071  -0.00001   0.00000   0.00012   0.00024   0.10096
    X2        3.40313  -0.00002   0.00000   0.00109   0.00115   3.40428
    Y2       -0.34773  -0.00001   0.00000  -0.00168  -0.00166  -0.34939
    Z2        3.52357  -0.00005   0.00000  -0.00340  -0.00338   3.52019
    X3       -3.34543  -0.00001   0.00000   0.00037   0.00037  -3.34506
    Y3       -2.41915  -0.00002   0.00000  -0.00047  -0.00046  -2.41961
    Z3       -1.37012  -0.00008   0.00000  -0.00362  -0.00351  -1.37363
    X4        2.53704   0.00005   0.00000   0.00200   0.00199   2.53902
    Y4       -2.44680  -0.00001   0.00000   0.00025   0.00027  -2.44653
    Z4       -2.31204   0.00004   0.00000   0.00249   0.00252  -2.30952
    X5        3.50379   0.00000   0.00000  -0.00128  -0.00130   3.50250
    Y5        2.99144   0.00003   0.00000   0.00180   0.00182   2.99327
    Z5       -1.16391   0.00001   0.00000  -0.00035  -0.00032  -1.16424
    X6       -2.10293   0.00000   0.00000   0.00131   0.00137  -2.10156
    Y6       -0.22945   0.00004   0.00000   0.00174   0.00175  -0.22770
    Z6        4.15404   0.00005   0.00000   0.00243   0.00253   4.15657
    X7        0.12639   0.00000   0.00000  -0.00331  -0.00326   0.12313
    Y7       -4.75828   0.00001   0.00000   0.00075   0.00076  -4.75752
    Z7        2.39359   0.00002   0.00000   0.00092   0.00099   2.39457
    X8       -0.76471  -0.00001   0.00000  -0.00056  -0.00061  -0.76532
    Y8        1.64316  -0.00001   0.00000  -0.00062  -0.00061   1.64255
    Z8       -4.11316   0.00000   0.00000  -0.00052  -0.00044  -4.11361
    X9        0.36484  -0.00003   0.00000  -0.00027  -0.00023   0.36461
    Y9        3.92215  -0.00003   0.00000  -0.00056  -0.00055   3.92160
    Z9        3.15487   0.00003   0.00000   0.00130   0.00137   3.15624
         Item               Value     Threshold  Converged?
 Maximum Force            0.000077     0.000450     YES
 RMS     Force            0.000029     0.000300     YES
 Maximum Displacement     0.003506     0.001800     NO 
 RMS     Displacement     0.001638     0.001200     NO 
 Predicted change in Energy=-5.085281D-07
 GradGradGradGradGradGradGradGradGradGradGradGradGradGradGradGradGradGrad

 Leave Link  103 at Tue Mar  6 19:31:46 2018, MaxMem=   536870912 cpu:         0.4
 (Enter /share/apps//mg09/l9999.exe)
 1\1\GINC-COMPUTE-0-0\Freq\RPBE1PBE\def2TZVP\Bi4Ge3Sn2\RODRIGO\06-Mar-2
 018\0\\#P Geom=AllCheck Guess=TCheck SCRF=Check GenChk RPBE1PBE/def2TZ
 VP Freq\\01Final_coords.xyz_44\\0,1\Bi,-2.0525386911,1.5698151734,0.05
 3295595\Sn,1.8008597072,-0.1840100933,1.8645906772\Bi,-1.7703260138,-1
 .280157351,-0.7250362051\Bi,1.3425411707,-1.2947896386,-1.2234799196\B
 i,1.8541278222,1.5830034811,-0.6159171248\Ge,-1.1128226379,-0.12142007
 21,2.1982210416\Sn,0.066881785,-2.5179709829,1.2666320911\Ge,-0.404669
 5155,0.8695216893,-2.1765911782\Ge,0.1930663731,2.075510794,1.66948502
 29\\Version=ES64L-G09RevD.01\State=1-A\HF=-7517.8169112\RMSD=8.463e-09
 \RMSF=2.942e-05\ZeroPoint=0.005822\Thermal=0.0232942\Dipole=0.014779,-
 0.3718522,-0.5009043\DipoleDeriv=0.0827963,-0.0761561,0.0300146,0.0142
 516,-0.0319041,-0.0308871,-0.046118,0.0105375,-0.1358226,0.182602,-0.0
 366995,0.1957235,-0.0689589,-0.0374753,0.0043721,0.0792434,0.0524446,0
 .1667419,0.0849004,-0.035924,-0.0301538,-0.0007754,-0.0123143,0.067336
 1,-0.0523485,0.0050689,-0.000044,0.0839372,0.0275637,-0.0155975,0.0080
 353,-0.0196667,0.0704124,0.01276,0.0116227,-0.0022261,0.0302188,0.0826
 354,-0.1201954,-0.0247103,-0.0264893,-0.0327387,-0.0386137,-0.0179345,
 -0.1493271,-0.0171468,0.0355202,-0.0629589,0.0816601,-0.1421699,0.0171
 689,0.0202243,0.0816299,-0.0007077,-0.0748518,-0.0232871,-0.0208634,0.
 0048092,0.3912791,-0.1923263,-0.0265894,-0.1761224,0.0216848,-0.145068
 ,-0.0056109,0.0261137,0.0074582,-0.0781055,0.0229839,0.0520787,-0.0544
 52,0.0935755,-0.227388,0.0319584,-0.0020828,-0.0217697,-0.0431541,0.07
 36786,-0.0006369,0.0872053,0.0061253\Polar=376.0006477,-0.2488838,388.
 5322979,8.0134927,-9.1373168,367.4330347\PG=C01 [X(Bi4Ge3Sn2)]\NImag=0
 \\0.06483931,-0.02134262,0.07521832,0.01002727,0.00773208,0.05969940,-
 0.00546756,-0.00259822,-0.00320829,0.05843959,0.00017828,-0.00305239,0
 .00258893,-0.00106681,0.06012761,0.00090364,0.00148447,-0.00298107,0.0
 1410046,-0.01172375,0.04307035,-0.00259018,0.00428083,-0.00337254,-0.0
 0608698,-0.00313392,-0.00112227,0.06366207,0.00443630,-0.04744768,-0.0
 1190099,0.00277321,0.00170300,0.00052702,0.00795171,0.07989132,-0.0013
 8598,-0.01540297,-0.00344690,-0.00189982,-0.00300885,-0.00494129,0.014
 94694,0.00029767,0.04111579,-0.00432847,0.00337787,0.00550338,-0.00116
 749,0.00169456,-0.00279260,-0.02504754,-0.00161522,0.00521616,0.051632
 33,-0.00080299,-0.00348971,-0.00310499,0.00193735,-0.00084091,-0.00443
 863,0.00129588,-0.00404079,-0.00185421,-0.00898838,0.07556754,-0.00118
 556,-0.00034142,0.00228398,-0.00131079,-0.00301423,-0.00974037,0.00309
 782,-0.00157622,0.00156993,-0.01600333,0.00730365,0.04901945,-0.007937
 65,-0.00477569,0.00184551,-0.00099326,-0.00249344,-0.00059520,-0.00476
 401,0.00026720,0.00356316,-0.00108125,-0.00691680,0.00082771,0.0560112
 9,0.00341729,0.00097245,-0.00306402,-0.00444512,-0.00994949,0.01689708
 ,-0.00348589,-0.00346436,0.00094003,-0.00788926,-0.04494261,-0.0111582
 1,0.02243257,0.07207523,0.00024479,-0.00135114,-0.00257389,-0.00053565
 ,0.01626500,-0.02073044,-0.00273723,-0.00274621,0.00271049,0.00292171,
 -0.00846329,-0.00486416,-0.00373815,-0.00301397,0.06209574,-0.00387564
 ,0.01147267,-0.00638061,-0.02365396,0.00043070,0.00572494,-0.00047535,
 -0.00314918,-0.00085936,-0.00561335,-0.00264744,0.00301544,-0.00545982
 ,0.00286379,0.00524108,0.04896010,0.00793505,-0.01052016,0.01369308,0.
 00138351,0.00186204,0.00169231,-0.00165807,-0.00098855,-0.00037166,0.0
 0251532,0.00220878,-0.00452819,0.00045873,-0.00265309,0.00336304,-0.00
 294628,0.06530989,-0.00566585,0.01432972,-0.01772538,-0.00007327,0.002
 11178,-0.00247001,0.00130248,-0.00213623,-0.00677451,0.00109041,0.0012
 6928,-0.00697006,-0.00063783,0.00124354,-0.00409970,-0.01253969,-0.013
 66582,0.05032064,0.00042514,0.00524341,0.00047978,-0.00977000,-0.01762
 403,-0.00461559,-0.01616194,0.00843900,-0.01855034,-0.00500074,-0.0035
 5881,0.01127614,0.00010007,-0.00491709,-0.00087002,-0.00367358,0.01187
 911,0.00384106,0.04051125,-0.00034391,-0.00256591,0.00080687,-0.014632
 79,-0.02254513,-0.00275978,0.00840672,-0.00936739,0.01024900,-0.004284
 63,-0.00863711,0.00829226,0.00050854,-0.00176904,0.00058428,0.00897920
 ,-0.02483704,-0.00471209,0.00017043,0.07380284,0.00136087,0.00145182,-
 0.00141905,-0.00501482,-0.00535626,0.00018472,-0.01873108,0.01085545,-
 0.01809627,0.01158676,0.00873790,-0.02142209,-0.00146186,0.00247367,-0
 .00046713,0.00399954,-0.00915209,-0.00271076,0.00765963,-0.01264401,0.
 04794242,-0.01302772,0.00840037,0.01665727,-0.00007493,0.00316201,-0.0
 0697480,-0.00905663,-0.01092994,0.00238120,-0.01000755,0.01260118,-0.0
 0115275,-0.02505290,-0.00937217,-0.01787985,0.00111899,-0.00380358,0.0
 0583267,-0.00027124,0.00023717,-0.00039895,0.05788043,0.00855430,-0.00
 487964,-0.00395496,0.00161001,-0.00274889,-0.00068687,-0.01327279,-0.0
 1129970,0.01225214,0.01570309,-0.01128593,0.00719256,-0.01008270,-0.00
 474036,-0.00175726,-0.00211909,-0.00285845,-0.00066568,0.00102914,-0.0
 0110793,0.00485628,-0.00064459,0.03719426,0.01436280,-0.00458567,-0.02
 292908,0.00116954,-0.00043716,-0.00404434,0.00294341,0.01049887,-0.007
 65495,-0.00207283,0.00612419,-0.00638779,-0.01533129,-0.00193689,-0.01
 290325,-0.00296502,0.00084909,-0.00684609,-0.00021408,-0.00082035,-0.0
 0172022,0.00221219,-0.01246079,0.06616751,-0.02803722,-0.00405862,-0.0
 2155178,-0.01122541,0.01885264,-0.00462858,0.00052056,-0.00817309,-0.0
 0341196,0.00061407,0.00708002,0.00143531,-0.01082246,0.00139589,0.0173
 5333,-0.00732739,-0.01576380,0.00685003,-0.00615896,0.00095928,0.00099
 991,-0.00150846,-0.00077736,-0.00010473,0.06394529,-0.00203170,-0.0042
 3529,-0.00279599,0.01503886,-0.02455585,-0.00099184,-0.00038446,-0.004
 98586,-0.00310114,-0.00051336,-0.00453928,-0.00217020,0.00060159,-0.00
 552873,-0.00288045,-0.01288435,-0.02752341,0.00222550,-0.00066116,-0.0
 0297330,-0.00122277,0.00034956,0.00172664,0.00276870,0.00048504,0.0726
 1507,-0.01866198,-0.00331689,-0.01090801,-0.00322737,0.00257455,0.0016
 5246,0.00367247,-0.00381937,-0.00448229,-0.00544967,-0.00557389,-0.003
 48890,0.01552795,-0.00238124,-0.01916766,0.00476369,0.00812025,-0.0027
 2413,0.00099342,0.00100382,-0.00229161,-0.00067698,-0.00477542,-0.0036
 8181,0.00305846,0.00816819,0.04509196\\-0.00003066,0.00001213,0.000012
 33,0.00002132,0.00001082,0.00005079,0.00001247,0.00001966,0.00007742,-
 0.00004504,0.00000797,-0.00003693,-0.00000365,-0.00003207,-0.00000983,
 -0.00000345,-0.00004186,-0.00004702,0.00000349,-0.00001483,-0.00002159
 ,0.00001331,0.00000672,0.00000492,0.00003221,0.00003146,-0.00003010\\\
 @


 THERE ARE PEOPLE SO ADDICTED TO EXAGERATING THEY
 CAN'T TELL THE TRUTH WITHOUT LYING. -- FORTUNE COOKIE
 Job cpu time:       0 days  4 hours 33 minutes 44.7 seconds.
 File lengths (MBytes):  RWF=    299 Int=      0 D2E=      0 Chk=     16 Scr=      1
 Normal termination of Gaussian 09 at Tue Mar  6 19:31:48 2018.
