 Entering Gaussian System, Link 0=/share/apps/mg09/g09
 Initial command:
 /share/apps//mg09/l1.exe "/state/partition1/gauss_tmp/Gau-27961.inp" -scrdir="/state/partition1/gauss_tmp/"
 Entering Link 1 = /share/apps//mg09/l1.exe PID=     27963.
  
 Copyright (c) 1988,1990,1992,1993,1995,1998,2003,2009,2013,
            Gaussian, Inc.  All Rights Reserved.
  
 This is part of the Gaussian(R) 09 program.  It is based on
 the Gaussian(R) 03 system (copyright 2003, Gaussian, Inc.),
 the Gaussian(R) 98 system (copyright 1998, Gaussian, Inc.),
 the Gaussian(R) 94 system (copyright 1995, Gaussian, Inc.),
 the Gaussian 92(TM) system (copyright 1992, Gaussian, Inc.),
 the Gaussian 90(TM) system (copyright 1990, Gaussian, Inc.),
 the Gaussian 88(TM) system (copyright 1988, Gaussian, Inc.),
 the Gaussian 86(TM) system (copyright 1986, Carnegie Mellon
 University), and the Gaussian 82(TM) system (copyright 1983,
 Carnegie Mellon University). Gaussian is a federally registered
 trademark of Gaussian, Inc.
  
 This software contains proprietary and confidential information,
 including trade secrets, belonging to Gaussian, Inc.
  
 This software is provided under written license and may be
 used, copied, transmitted, or stored only in accord with that
 written license.
  
 The following legend is applicable only to US Government
 contracts under FAR:
  
                    RESTRICTED RIGHTS LEGEND
  
 Use, reproduction and disclosure by the US Government is
 subject to restrictions as set forth in subparagraphs (a)
 and (c) of the Commercial Computer Software - Restricted
 Rights clause in FAR 52.227-19.
  
 Gaussian, Inc.
 340 Quinnipiac St., Bldg. 40, Wallingford CT 06492
  
  
 ---------------------------------------------------------------
 Warning -- This program may not be used in any manner that
 competes with the business of Gaussian, Inc. or will provide
 assistance to any competitor of Gaussian, Inc.  The licensee
 of this program is prohibited from giving any competitor of
 Gaussian, Inc. access to this program.  By using this program,
 the user acknowledges that Gaussian, Inc. is engaged in the
 business of creating and licensing software in the field of
 computational chemistry and represents and warrants to the
 licensee that it is not a competitor of Gaussian, Inc. and that
 it will not use this program in any manner prohibited above.
 ---------------------------------------------------------------
  

 Cite this work as:
 Gaussian 09, Revision D.01,
 M. J. Frisch, G. W. Trucks, H. B. Schlegel, G. E. Scuseria, 
 M. A. Robb, J. R. Cheeseman, G. Scalmani, V. Barone, B. Mennucci, 
 G. A. Petersson, H. Nakatsuji, M. Caricato, X. Li, H. P. Hratchian, 
 A. F. Izmaylov, J. Bloino, G. Zheng, J. L. Sonnenberg, M. Hada, 
 M. Ehara, K. Toyota, R. Fukuda, J. Hasegawa, M. Ishida, T. Nakajima, 
 Y. Honda, O. Kitao, H. Nakai, T. Vreven, J. A. Montgomery, Jr., 
 J. E. Peralta, F. Ogliaro, M. Bearpark, J. J. Heyd, E. Brothers, 
 K. N. Kudin, V. N. Staroverov, T. Keith, R. Kobayashi, J. Normand, 
 K. Raghavachari, A. Rendell, J. C. Burant, S. S. Iyengar, J. Tomasi, 
 M. Cossi, N. Rega, J. M. Millam, M. Klene, J. E. Knox, J. B. Cross, 
 V. Bakken, C. Adamo, J. Jaramillo, R. Gomperts, R. E. Stratmann, 
 O. Yazyev, A. J. Austin, R. Cammi, C. Pomelli, J. W. Ochterski, 
 R. L. Martin, K. Morokuma, V. G. Zakrzewski, G. A. Voth, 
 P. Salvador, J. J. Dannenberg, S. Dapprich, A. D. Daniels, 
 O. Farkas, J. B. Foresman, J. V. Ortiz, J. Cioslowski, 
 and D. J. Fox, Gaussian, Inc., Wallingford CT, 2013.
 
 ******************************************
 Gaussian 09:  ES64L-G09RevD.01 24-Apr-2013
                 8-Mar-2018 
 ******************************************
 %NProcShared=4
 Will use up to    4 processors via shared memory.
 %LindaWorkers=compute-0-6
 %chk=Isomer_27.chk
 %NProc=4
 Will use up to    4 processors via shared memory.
 %mem=4GB
 SetLPE:  input flags=" -vv -opt "Tsnet.Node.lindarsharg: ssh" "
 SetLPE:    new flags=" -vv -opt "Tsnet.Node.lindarsharg: ssh"  -nodelist 'compute-0-6.local'"
 Will use up to    1 processors via Linda.
 ----------------------------------------------------------------------
 #p PBE1PBE/Def2TZVP scf=(maxcycle=768) opt=(cartesian,maxcycle=512) fr
 eq
 ----------------------------------------------------------------------
 1/6=512,10=7,14=-1,18=10,26=3,38=1/1,3;
 2/12=2,17=6,18=5,29=2,40=1/2;
 3/5=44,7=101,11=2,16=1,25=1,30=1,71=1,74=-13/1,2,3;
 4//1;
 5/5=2,7=768,38=5/2;
 6/7=2,8=2,9=2,10=2,28=1/1;
 7/7=1,29=1/1,2,3,16;
 1/6=512,10=7,14=-1,18=10,26=3/3(2);
 2/29=1/2;
 99/12=1/99;
 2/29=1/2;
 3/5=44,7=101,11=2,16=1,25=1,30=1,71=1,74=-13/1,2,3;
 4/5=5,16=3,69=1/1;
 5/5=2,7=768,38=5/2;
 7/7=1/1,2,3,16;
 1/6=512,14=-1,18=10,26=3/3(-5);
 2/29=1/2;
 6/7=2,8=2,9=2,10=2,19=2,28=1/1;
 99/9=1,12=1/99;
 Leave Link    1 at Thu Mar  8 05:12:58 2018, MaxMem=   536870912 cpu:         0.2
 (Enter /share/apps//mg09/l101.exe)
 ---------------------
 01Final_coords.xyz_27
 ---------------------
 Symbolic Z-matrix:
 Charge =  0 Multiplicity = 1
 32                    0.51791  -1.78286   1.71107 
 32                   -0.1013    0.16059  -2.49369 
 32                   -0.37659   1.22813   2.07571 
 83                   -2.18662   0.91167  -0.54666 
 50                   -2.22578  -0.96336   1.86802 
 50                   -1.35891  -2.13618  -0.87843 
 83                    2.22013   0.47612   1.07742 
 83                    0.49625   2.31004  -0.61219 
 83                    1.61425  -1.67868  -1.01325 
 
 NAtoms=      9 NQM=        9 NQMF=       0 NMMI=      0 NMMIF=      0
                NMic=       0 NMicF=      0.
                    Isotopes and Nuclear Properties:
 (Nuclear quadrupole moments (NQMom) in fm**2, nuclear magnetic moments (NMagM)
  in nuclear magnetons)

  Atom         1           2           3           4           5           6           7           8           9
 IAtWgt=          74          74          74         209         118         118         209         209         209
 AtmWgt=  73.9211788  73.9211788  73.9211788 208.9804000 117.9018000 117.9018000 208.9804000 208.9804000 208.9804000
 NucSpn=           0           0           0           9           0           0           9           9           9
 AtZEff=   0.0000000   0.0000000   0.0000000   0.0000000   0.0000000   0.0000000   0.0000000   0.0000000   0.0000000
 NQMom=    0.0000000   0.0000000   0.0000000 -51.6000000   0.0000000   0.0000000 -51.6000000 -51.6000000 -51.6000000
 NMagM=    0.0000000   0.0000000   0.0000000   4.1106000   0.0000000   0.0000000   4.1106000   4.1106000   4.1106000
 AtZNuc=  32.0000000  32.0000000  32.0000000  83.0000000  50.0000000  50.0000000  83.0000000  83.0000000  83.0000000
 Leave Link  101 at Thu Mar  8 05:12:58 2018, MaxMem=   536870912 cpu:         0.3
 (Enter /share/apps//mg09/l103.exe)

 GradGradGradGradGradGradGradGradGradGradGradGradGradGradGradGradGradGrad
 Berny optimization.
 Initialization pass.
 No Z-matrix variables, so optimization will use Cartesian coordinates.
 Trust Radius=3.00D-01 FncErr=1.00D-07 GrdErr=1.00D-06
 Number of steps in this run=    100 maximum allowed number of steps=    100.
 GradGradGradGradGradGradGradGradGradGradGradGradGradGradGradGradGradGrad

 Leave Link  103 at Thu Mar  8 05:12:58 2018, MaxMem=   536870912 cpu:         0.1
 (Enter /share/apps//mg09/l202.exe)
 ---------------------------------------------------------------------------------------------------
                            Z-MATRIX (ANGSTROMS AND DEGREES)
   CD    Cent   Atom    N1       Length/X        N2       Alpha/Y        N3        Beta/Z          J
 ---------------------------------------------------------------------------------------------------
      1      1  Ge       0   0.517914         -1.782861          1.711072
      2      2  Ge       0  -0.101297          0.160591         -2.493690
      3      3  Ge       0  -0.376586          1.228125          2.075707
      4      4  Bi       0  -2.186620          0.911667         -0.546660
      5      5  Sn       0  -2.225778         -0.963363          1.868019
      6      6  Sn       0  -1.358910         -2.136179         -0.878432
      7      7  Bi       0   2.220134          0.476124          1.077421
      8      8  Bi       0   0.496254          2.310038         -0.612185
      9      9  Bi       0   1.614249         -1.678675         -1.013253
 ---------------------------------------------------------------------------------------------------
                         Z-Matrix orientation:                         
 ---------------------------------------------------------------------
 Center     Atomic      Atomic             Coordinates (Angstroms)
 Number     Number       Type             X           Y           Z
 ---------------------------------------------------------------------
      1         32           0        0.517914   -1.782861    1.711072
      2         32           0       -0.101297    0.160591   -2.493690
      3         32           0       -0.376586    1.228125    2.075707
      4         83           0       -2.186620    0.911667   -0.546660
      5         50           0       -2.225778   -0.963363    1.868019
      6         50           0       -1.358910   -2.136179   -0.878432
      7         83           0        2.220134    0.476124    1.077421
      8         83           0        0.496254    2.310038   -0.612185
      9         83           0        1.614249   -1.678675   -1.013253
 ---------------------------------------------------------------------
                    Distance matrix (angstroms):
                    1          2          3          4          5
     1  Ge   0.000000
     2  Ge   4.673377   0.000000
     3  Ge   3.162139   4.700511   0.000000
     4  Bi   4.435351   2.950189   3.202058   0.000000
     5  Sn   2.867761   4.980080   2.874937   3.057441   0.000000
     6  Sn   3.217582   3.076654   4.583715   3.175617   3.109654
     7  Bi   2.898634   4.271000   2.881846   4.716653   4.739547
     8  Bi   4.706359   2.918433   3.026078   3.026144   4.927071
     9  Bi   2.938495   2.918508   4.685572   4.623222   4.853783
                    6          7          8          9
     6  Sn   0.000000
     7  Bi   4.843454   0.000000
     8  Bi   4.825077   3.031464   0.000000
     9  Bi   3.011173   3.062870   4.161802   0.000000
 Stoichiometry    Bi4Ge3Sn2
 Framework group  C1[X(Bi4Ge3Sn2)]
 Deg. of freedom    21
 Full point group                 C1      NOp   1
 Largest Abelian subgroup         C1      NOp   1
 Largest concise Abelian subgroup C1      NOp   1
                         Standard orientation:                         
 ---------------------------------------------------------------------
 Center     Atomic      Atomic             Coordinates (Angstroms)
 Number     Number       Type             X           Y           Z
 ---------------------------------------------------------------------
      1         32           0        0.517913   -1.782861    1.711072
      2         32           0       -0.101297    0.160591   -2.493690
      3         32           0       -0.376585    1.228125    2.075707
      4         83           0       -2.186619    0.911668   -0.546660
      5         50           0       -2.225779   -0.963362    1.868019
      6         50           0       -1.358911   -2.136178   -0.878432
      7         83           0        2.220134    0.476123    1.077421
      8         83           0        0.496255    2.310038   -0.612185
      9         83           0        1.614248   -1.678676   -1.013253
 ---------------------------------------------------------------------
 Rotational constants (GHZ):      0.1008161      0.0909929      0.0792340
 Leave Link  202 at Thu Mar  8 05:12:58 2018, MaxMem=   536870912 cpu:         0.0
 (Enter /share/apps//mg09/l301.exe)
 Standard basis: def2TZVP (5D, 7F)
 Ernie: Thresh=  0.10000D-02 Tol=  0.10000D-05 Strict=F.
 There are   519 symmetry adapted cartesian basis functions of A   symmetry.
 There are   444 symmetry adapted basis functions of A   symmetry.
   444 basis functions,   963 primitive gaussians,   519 cartesian basis functions
   116 alpha electrons      116 beta electrons
       nuclear repulsion energy      3534.6008617595 Hartrees.
 IExCor= 1009 DFT=T Ex+Corr=PBE1PBE ExCW=0 ScaHFX=  0.250000
 ScaDFX=  0.750000  0.750000  1.000000  1.000000 ScalE2=  1.000000  1.000000
 IRadAn=      0 IRanWt=     -1 IRanGd=            0 ICorTp=0 IEmpDi=  4
 NAtoms=    9 NActive=    9 NUniq=    9 SFac= 1.00D+00 NAtFMM=   60 NAOKFM=F Big=F
 Integral buffers will be    131072 words long.
 Raffenetti 2 integral format.
 Two-electron integral symmetry is turned on.
 Leave Link  301 at Thu Mar  8 05:12:58 2018, MaxMem=   536870912 cpu:         0.2
 (Enter /share/apps//mg09/l302.exe)
 NPDir=0 NMtPBC=     1 NCelOv=     1 NCel=       1 NClECP=     1 NCelD=      1
         NCelK=      1 NCelE2=     1 NClLst=     1 CellRange=     0.0.
 One-electron integrals computed using PRISM.
   1 Symmetry operations used in ECPInt.
 ECPInt:  NShTT=   10440 NPrTT=   41973 LenC2=    9661 LenP2D=   27499.
 LDataN:  DoStor=T MaxTD1= 8 Len=  415
 NBasis=   444 RedAO= T EigKep=  1.10D-03  NBF=   444
 NBsUse=   444 1.00D-06 EigRej= -1.00D+00 NBFU=   444
 Precomputing XC quadrature grid using
 IXCGrd= 4 IRadAn=           0 IRanWt=          -1 IRanGd=           0 AccXCQ= 0.00D+00.
 Defaulting to unpruned grid for atomic number  83.
 Defaulting to unpruned grid for atomic number  83.
 Generated NRdTot=       0 NPtTot=           0 NUsed=           0 NTot=          32
 NSgBfM=   501   501   501   501   501 MxSgAt=     9 MxSgA2=     9.
 Leave Link  302 at Thu Mar  8 05:13:06 2018, MaxMem=   536870912 cpu:        30.1
 (Enter /share/apps//mg09/l303.exe)
 DipDrv:  MaxL=1.
 Leave Link  303 at Thu Mar  8 05:13:06 2018, MaxMem=   536870912 cpu:         0.4
 (Enter /share/apps//mg09/l401.exe)
 ExpMin= 4.62D-02 ExpMax= 4.66D+05 ExpMxC= 4.50D+03 IAcc=2 IRadAn=         4 AccDes= 0.00D+00
 Harris functional with IExCor= 1009 and IRadAn=       4 diagonalized for initial guess.
 HarFok:  IExCor= 1009 AccDes= 0.00D+00 IRadAn=         4 IDoV= 1 UseB2=F ITyADJ=14
 ICtDFT=  3500011 ScaDFX=  1.000000  1.000000  1.000000  1.000000
 Defaulting to unpruned grid for atomic number  83.
 Defaulting to unpruned grid for atomic number  83.
 Defaulting to unpruned grid for atomic number  83.
 Defaulting to unpruned grid for atomic number  83.
 FoFCou: FMM=F IPFlag=           0 FMFlag=      100000 FMFlg1=           0
         NFxFlg=           0 DoJE=T BraDBF=F KetDBF=T FulRan=T
         wScrn=  0.000000 ICntrl=     500 IOpCl=  0 I1Cent=   200000004 NGrid=           0
         NMat0=    1 NMatS0=      1 NMatT0=    0 NMatD0=    1 NMtDS0=    0 NMtDT0=    0
 Petite list used in FoFCou.
 Harris En= -7518.60152755066    
 JPrj=0 DoOrth=F DoCkMO=F.
 Leave Link  401 at Thu Mar  8 05:13:09 2018, MaxMem=   536870912 cpu:        11.7
 (Enter /share/apps//mg09/l502.exe)
 Closed shell SCF:
 Using DIIS extrapolation, IDIIS=  1040.
 Integral symmetry usage will be decided dynamically.
 IVT=     1410107 IEndB=     1410107 NGot=   536870912 MDV=   536322046
 LenX=   536322046 LenY=   536052166
 Requested convergence on RMS density matrix=1.00D-08 within 768 cycles.
 Requested convergence on MAX density matrix=1.00D-06.
 Requested convergence on             energy=1.00D-06.
 No special actions if energy rises.
 Fock matrices will be formed incrementally for  20 cycles.

 Cycle   1  Pass 1  IDiag  1:
 FoFJK:  IHMeth= 1 ICntrl=       0 DoSepK=F KAlg= 0 I1Cent=   0 FoldK=F
 IRaf= 880000000 NMat=   1 IRICut=       1 DoRegI=T DoRafI=F ISym2E= 0.
 FoFCou: FMM=F IPFlag=           0 FMFlag=      100000 FMFlg1=           0
         NFxFlg=           0 DoJE=F BraDBF=F KetDBF=F FulRan=T
         wScrn=  0.000000 ICntrl=       0 IOpCl=  0 I1Cent=           0 NGrid=           0
         NMat0=    1 NMatS0=      1 NMatT0=    0 NMatD0=    1 NMtDS0=    0 NMtDT0=    0
 Symmetry not used in FoFCou.
 Defaulting to unpruned grid for atomic number  83.
 Defaulting to unpruned grid for atomic number  83.
 Defaulting to unpruned grid for atomic number  83.
 Defaulting to unpruned grid for atomic number  83.
 E= -7517.25143806235    
 DIIS: error= 3.59D-02 at cycle   1 NSaved=   1.
 NSaved= 1 IEnMin= 1 EnMin= -7517.25143806235     IErMin= 1 ErrMin= 3.59D-02
 ErrMax= 3.59D-02  0.00D+00 EMaxC= 1.00D-01 BMatC= 1.46D+00 BMatP= 1.46D+00
 IDIUse=3 WtCom= 6.41D-01 WtEn= 3.59D-01
 Coeff-Com:  0.100D+01
 Coeff-En:   0.100D+01
 Coeff:      0.100D+01
 Gap=     0.132 Goal=   None    Shift=    0.000
 GapD=    0.132 DampG=1.000 DampE=0.500 DampFc=0.5000 IDamp=-1.
 Damping current iteration by 5.00D-01
 RMSDP=5.14D-03 MaxDP=2.12D-01              OVMax= 6.35D-01

 Cycle   2  Pass 1  IDiag  1:
 RMSU=  2.57D-03    CP:  1.00D+00
 E= -7517.20134073930     Delta-E=        0.050097323052 Rises=F Damp=T
 DIIS: error= 1.18D-02 at cycle   2 NSaved=   2.
 NSaved= 2 IEnMin= 1 EnMin= -7517.25143806235     IErMin= 2 ErrMin= 1.18D-02
 ErrMax= 1.18D-02  0.00D+00 EMaxC= 1.00D-01 BMatC= 2.36D-01 BMatP= 1.46D+00
 IDIUse=3 WtCom= 8.82D-01 WtEn= 1.18D-01
 Coeff-Com:  0.119D+00 0.881D+00
 Coeff-En:   0.534D+00 0.466D+00
 Coeff:      0.168D+00 0.832D+00
 Gap=     0.148 Goal=   None    Shift=    0.000
 RMSDP=3.58D-03 MaxDP=1.71D-01 DE= 5.01D-02 OVMax= 5.95D-01

 Cycle   3  Pass 1  IDiag  1:
 RMSU=  2.95D-03    CP:  1.01D+00  2.07D-01
 E= -7516.04624268684     Delta-E=        1.155098052464 Rises=F Damp=F
 DIIS: error= 3.10D-02 at cycle   3 NSaved=   3.
 NSaved= 3 IEnMin= 1 EnMin= -7517.25143806235     IErMin= 2 ErrMin= 1.18D-02
 ErrMax= 3.10D-02  0.00D+00 EMaxC= 1.00D-01 BMatC= 1.32D+00 BMatP= 2.36D-01
 IDIUse=2 WtCom= 0.00D+00 WtEn= 1.00D+00
 EnCoef did    14 forward-backward iterations
 Coeff-En:   0.358D+00 0.525D+00 0.118D+00
 Coeff:      0.358D+00 0.525D+00 0.118D+00
 Gap=     0.149 Goal=   None    Shift=    0.000
 RMSDP=3.06D-03 MaxDP=1.24D-01 DE= 1.16D+00 OVMax= 3.50D-01

 Cycle   4  Pass 1  IDiag  1:
 RMSU=  1.12D-03    CP:  1.01D+00  8.92D-01  2.39D-01
 E= -7517.76060510914     Delta-E=       -1.714362422299 Rises=F Damp=F
 DIIS: error= 6.35D-03 at cycle   4 NSaved=   4.
 NSaved= 4 IEnMin= 4 EnMin= -7517.76060510914     IErMin= 4 ErrMin= 6.35D-03
 ErrMax= 6.35D-03  0.00D+00 EMaxC= 1.00D-01 BMatC= 1.19D-01 BMatP= 2.36D-01
 IDIUse=3 WtCom= 9.36D-01 WtEn= 6.35D-02
 Coeff-Com:  0.263D+00-0.167D+00-0.449D-01 0.949D+00
 Coeff-En:   0.000D+00 0.000D+00 0.000D+00 0.100D+01
 Coeff:      0.246D+00-0.156D+00-0.420D-01 0.952D+00
 Gap=     0.116 Goal=   None    Shift=    0.000
 RMSDP=8.12D-04 MaxDP=5.17D-02 DE=-1.71D+00 OVMax= 5.07D-02

 Cycle   5  Pass 1  IDiag  1:
 RMSU=  5.07D-04    CP:  1.00D+00  6.97D-01  1.43D-01  8.15D-01
 E= -7517.79323616570     Delta-E=       -0.032631056569 Rises=F Damp=F
 DIIS: error= 2.93D-03 at cycle   5 NSaved=   5.
 NSaved= 5 IEnMin= 5 EnMin= -7517.79323616570     IErMin= 5 ErrMin= 2.93D-03
 ErrMax= 2.93D-03  0.00D+00 EMaxC= 1.00D-01 BMatC= 1.97D-02 BMatP= 1.19D-01
 IDIUse=3 WtCom= 9.71D-01 WtEn= 2.93D-02
 Coeff-Com:  0.139D+00-0.171D+00-0.322D-01 0.575D+00 0.489D+00
 Coeff-En:   0.000D+00 0.000D+00 0.000D+00 0.121D+00 0.879D+00
 Coeff:      0.135D+00-0.166D+00-0.313D-01 0.561D+00 0.500D+00
 Gap=     0.127 Goal=   None    Shift=    0.000
 RMSDP=5.04D-04 MaxDP=3.10D-02 DE=-3.26D-02 OVMax= 5.98D-02

 Cycle   6  Pass 1  IDiag  1:
 RMSU=  3.50D-04    CP:  1.00D+00  6.74D-01  1.46D-01  8.70D-01  3.04D-01
 E= -7517.79725778538     Delta-E=       -0.004021619674 Rises=F Damp=F
 DIIS: error= 3.14D-03 at cycle   6 NSaved=   6.
 NSaved= 6 IEnMin= 6 EnMin= -7517.79725778538     IErMin= 5 ErrMin= 2.93D-03
 ErrMax= 3.14D-03  0.00D+00 EMaxC= 1.00D-01 BMatC= 1.09D-02 BMatP= 1.97D-02
 IDIUse=3 WtCom= 9.71D-01 WtEn= 2.93D-02
 Coeff-Com:  0.595D-01-0.943D-01-0.185D-02 0.281D+00 0.404D+00 0.352D+00
 Coeff-En:   0.000D+00 0.000D+00 0.000D+00 0.000D+00 0.447D+00 0.553D+00
 Coeff:      0.577D-01-0.915D-01-0.179D-02 0.273D+00 0.405D+00 0.358D+00
 Gap=     0.124 Goal=   None    Shift=    0.000
 RMSDP=3.06D-04 MaxDP=1.04D-02 DE=-4.02D-03 OVMax= 3.66D-02

 Cycle   7  Pass 1  IDiag  1:
 RMSU=  1.30D-04    CP:  1.00D+00  6.68D-01  1.58D-01  8.52D-01  5.59D-01
                    CP:  3.08D-01
 E= -7517.80929999331     Delta-E=       -0.012042207927 Rises=F Damp=F
 DIIS: error= 9.89D-04 at cycle   7 NSaved=   7.
 NSaved= 7 IEnMin= 7 EnMin= -7517.80929999331     IErMin= 7 ErrMin= 9.89D-04
 ErrMax= 9.89D-04  0.00D+00 EMaxC= 1.00D-01 BMatC= 1.33D-03 BMatP= 1.09D-02
 IDIUse=3 WtCom= 9.90D-01 WtEn= 9.89D-03
 Coeff-Com:  0.219D-01-0.406D-01 0.855D-02 0.114D+00 0.224D+00 0.273D+00
 Coeff-Com:  0.399D+00
 Coeff-En:   0.000D+00 0.000D+00 0.000D+00 0.000D+00 0.000D+00 0.110D+00
 Coeff-En:   0.890D+00
 Coeff:      0.216D-01-0.402D-01 0.847D-02 0.113D+00 0.222D+00 0.272D+00
 Coeff:      0.403D+00
 Gap=     0.122 Goal=   None    Shift=    0.000
 RMSDP=1.01D-04 MaxDP=6.27D-03 DE=-1.20D-02 OVMax= 1.07D-02

 Cycle   8  Pass 1  IDiag  1:
 RMSU=  3.55D-05    CP:  1.00D+00  6.68D-01  1.72D-01  8.56D-01  5.38D-01
                    CP:  4.38D-01  4.58D-01
 E= -7517.81090467094     Delta-E=       -0.001604677633 Rises=F Damp=F
 DIIS: error= 1.25D-04 at cycle   8 NSaved=   8.
 NSaved= 8 IEnMin= 8 EnMin= -7517.81090467094     IErMin= 8 ErrMin= 1.25D-04
 ErrMax= 1.25D-04  0.00D+00 EMaxC= 1.00D-01 BMatC= 2.65D-05 BMatP= 1.33D-03
 IDIUse=3 WtCom= 9.99D-01 WtEn= 1.25D-03
 Coeff-Com:  0.754D-02-0.150D-01 0.190D-02 0.333D-01 0.557D-01 0.733D-01
 Coeff-Com:  0.163D+00 0.681D+00
 Coeff-En:   0.000D+00 0.000D+00 0.000D+00 0.000D+00 0.000D+00 0.000D+00
 Coeff-En:   0.000D+00 0.100D+01
 Coeff:      0.753D-02-0.150D-01 0.189D-02 0.332D-01 0.557D-01 0.732D-01
 Coeff:      0.162D+00 0.681D+00
 Gap=     0.122 Goal=   None    Shift=    0.000
 RMSDP=1.90D-05 MaxDP=8.04D-04 DE=-1.60D-03 OVMax= 2.38D-03

 Cycle   9  Pass 1  IDiag  1:
 RMSU=  1.65D-05    CP:  1.00D+00  6.68D-01  1.72D-01  8.56D-01  5.37D-01
                    CP:  4.28D-01  5.01D-01  8.10D-01
 E= -7517.81091213156     Delta-E=       -0.000007460621 Rises=F Damp=F
 DIIS: error= 1.18D-04 at cycle   9 NSaved=   9.
 NSaved= 9 IEnMin= 9 EnMin= -7517.81091213156     IErMin= 9 ErrMin= 1.18D-04
 ErrMax= 1.18D-04  0.00D+00 EMaxC= 1.00D-01 BMatC= 1.54D-05 BMatP= 2.65D-05
 IDIUse=3 WtCom= 9.99D-01 WtEn= 1.18D-03
 Coeff-Com:  0.295D-02-0.612D-02 0.477D-03 0.104D-01 0.116D-01 0.183D-01
 Coeff-Com:  0.652D-01 0.497D+00 0.400D+00
 Coeff-En:   0.000D+00 0.000D+00 0.000D+00 0.000D+00 0.000D+00 0.000D+00
 Coeff-En:   0.000D+00 0.423D+00 0.577D+00
 Coeff:      0.295D-02-0.611D-02 0.476D-03 0.104D-01 0.116D-01 0.183D-01
 Coeff:      0.651D-01 0.497D+00 0.400D+00
 Gap=     0.122 Goal=   None    Shift=    0.000
 RMSDP=1.48D-05 MaxDP=6.68D-04 DE=-7.46D-06 OVMax= 1.73D-03

 Cycle  10  Pass 1  IDiag  1:
 RMSU=  8.23D-06    CP:  1.00D+00  6.67D-01  1.72D-01  8.56D-01  5.36D-01
                    CP:  4.29D-01  5.06D-01  9.16D-01  2.96D-01
 E= -7517.81092574557     Delta-E=       -0.000013614008 Rises=F Damp=F
 DIIS: error= 5.56D-05 at cycle  10 NSaved=  10.
 NSaved=10 IEnMin=10 EnMin= -7517.81092574557     IErMin=10 ErrMin= 5.56D-05
 ErrMax= 5.56D-05  0.00D+00 EMaxC= 1.00D-01 BMatC= 4.72D-06 BMatP= 1.54D-05
 IDIUse=1 WtCom= 1.00D+00 WtEn= 0.00D+00
 Coeff-Com:  0.237D-03-0.629D-03 0.422D-04-0.128D-02-0.744D-02-0.660D-02
 Coeff-Com:  0.695D-02 0.232D+00 0.349D+00 0.428D+00
 Coeff:      0.237D-03-0.629D-03 0.422D-04-0.128D-02-0.744D-02-0.660D-02
 Coeff:      0.695D-02 0.232D+00 0.349D+00 0.428D+00
 Gap=     0.122 Goal=   None    Shift=    0.000
 RMSDP=6.39D-06 MaxDP=2.34D-04 DE=-1.36D-05 OVMax= 6.67D-04

 Cycle  11  Pass 1  IDiag  1:
 RMSU=  2.29D-06    CP:  1.00D+00  6.67D-01  1.73D-01  8.56D-01  5.35D-01
                    CP:  4.30D-01  5.08D-01  9.24D-01  5.18D-01  4.63D-01
 E= -7517.81093192190     Delta-E=       -0.000006176335 Rises=F Damp=F
 DIIS: error= 6.59D-06 at cycle  11 NSaved=  11.
 NSaved=11 IEnMin=11 EnMin= -7517.81093192190     IErMin=11 ErrMin= 6.59D-06
 ErrMax= 6.59D-06  0.00D+00 EMaxC= 1.00D-01 BMatC= 1.35D-07 BMatP= 4.72D-06
 IDIUse=1 WtCom= 1.00D+00 WtEn= 0.00D+00
 Coeff-Com: -0.910D-04 0.122D-03 0.195D-04-0.135D-02-0.455D-02-0.477D-02
 Coeff-Com: -0.152D-02 0.776D-01 0.148D+00 0.231D+00 0.555D+00
 Coeff:     -0.910D-04 0.122D-03 0.195D-04-0.135D-02-0.455D-02-0.477D-02
 Coeff:     -0.152D-02 0.776D-01 0.148D+00 0.231D+00 0.555D+00
 Gap=     0.122 Goal=   None    Shift=    0.000
 RMSDP=1.16D-06 MaxDP=8.90D-05 DE=-6.18D-06 OVMax= 1.25D-04

 Cycle  12  Pass 1  IDiag  1:
 RMSU=  7.34D-07    CP:  1.00D+00  6.67D-01  1.73D-01  8.56D-01  5.36D-01
                    CP:  4.30D-01  5.06D-01  9.25D-01  5.16D-01  5.38D-01
                    CP:  7.48D-01
 E= -7517.81093204007     Delta-E=       -0.000000118169 Rises=F Damp=F
 DIIS: error= 3.28D-06 at cycle  12 NSaved=  12.
 NSaved=12 IEnMin=12 EnMin= -7517.81093204007     IErMin=12 ErrMin= 3.28D-06
 ErrMax= 3.28D-06  0.00D+00 EMaxC= 1.00D-01 BMatC= 1.34D-08 BMatP= 1.35D-07
 IDIUse=1 WtCom= 1.00D+00 WtEn= 0.00D+00
 Coeff-Com: -0.824D-04 0.156D-03 0.159D-04-0.651D-03-0.181D-02-0.209D-02
 Coeff-Com: -0.184D-02 0.175D-01 0.468D-01 0.817D-01 0.289D+00 0.572D+00
 Coeff:     -0.824D-04 0.156D-03 0.159D-04-0.651D-03-0.181D-02-0.209D-02
 Coeff:     -0.184D-02 0.175D-01 0.468D-01 0.817D-01 0.289D+00 0.572D+00
 Gap=     0.122 Goal=   None    Shift=    0.000
 RMSDP=4.12D-07 MaxDP=3.76D-05 DE=-1.18D-07 OVMax= 4.99D-05

 Cycle  13  Pass 1  IDiag  1:
 RMSU=  2.60D-07    CP:  1.00D+00  6.67D-01  1.73D-01  8.56D-01  5.36D-01
                    CP:  4.30D-01  5.07D-01  9.27D-01  5.17D-01  5.32D-01
                    CP:  8.25D-01  7.82D-01
 E= -7517.81093205435     Delta-E=       -0.000000014279 Rises=F Damp=F
 DIIS: error= 1.18D-06 at cycle  13 NSaved=  13.
 NSaved=13 IEnMin=13 EnMin= -7517.81093205435     IErMin=13 ErrMin= 1.18D-06
 ErrMax= 1.18D-06  0.00D+00 EMaxC= 1.00D-01 BMatC= 1.86D-09 BMatP= 1.34D-08
 IDIUse=1 WtCom= 1.00D+00 WtEn= 0.00D+00
 Coeff-Com: -0.821D-05 0.180D-04-0.323D-05-0.485D-04-0.152D-03-0.208D-03
 Coeff-Com: -0.584D-03-0.264D-02 0.262D-02 0.814D-02 0.666D-01 0.300D+00
 Coeff-Com:  0.626D+00
 Coeff:     -0.821D-05 0.180D-04-0.323D-05-0.485D-04-0.152D-03-0.208D-03
 Coeff:     -0.584D-03-0.264D-02 0.262D-02 0.814D-02 0.666D-01 0.300D+00
 Coeff:      0.626D+00
 Gap=     0.122 Goal=   None    Shift=    0.000
 RMSDP=1.53D-07 MaxDP=8.15D-06 DE=-1.43D-08 OVMax= 1.84D-05

 Cycle  14  Pass 1  IDiag  1:
 RMSU=  9.06D-08    CP:  1.00D+00  6.67D-01  1.73D-01  8.56D-01  5.35D-01
                    CP:  4.30D-01  5.07D-01  9.27D-01  5.19D-01  5.35D-01
                    CP:  8.22D-01  8.79D-01  8.53D-01
 E= -7517.81093205580     Delta-E=       -0.000000001448 Rises=F Damp=F
 DIIS: error= 4.23D-07 at cycle  14 NSaved=  14.
 NSaved=14 IEnMin=14 EnMin= -7517.81093205580     IErMin=14 ErrMin= 4.23D-07
 ErrMax= 4.23D-07  0.00D+00 EMaxC= 1.00D-01 BMatC= 2.48D-10 BMatP= 1.86D-09
 IDIUse=1 WtCom= 1.00D+00 WtEn= 0.00D+00
 Coeff-Com: -0.386D-05 0.110D-04-0.145D-05-0.655D-05 0.215D-05 0.366D-06
 Coeff-Com: -0.220D-03-0.240D-02-0.174D-02-0.149D-02 0.105D-01 0.118D+00
 Coeff-Com:  0.364D+00 0.513D+00
 Coeff:     -0.386D-05 0.110D-04-0.145D-05-0.655D-05 0.215D-05 0.366D-06
 Coeff:     -0.220D-03-0.240D-02-0.174D-02-0.149D-02 0.105D-01 0.118D+00
 Coeff:      0.364D+00 0.513D+00
 Gap=     0.122 Goal=   None    Shift=    0.000
 RMSDP=5.61D-08 MaxDP=3.41D-06 DE=-1.45D-09 OVMax= 5.89D-06

 Cycle  15  Pass 1  IDiag  1:
 RMSU=  3.03D-08    CP:  1.00D+00  6.67D-01  1.73D-01  8.56D-01  5.35D-01
                    CP:  4.30D-01  5.07D-01  9.27D-01  5.19D-01  5.37D-01
                    CP:  8.29D-01  8.92D-01  8.98D-01  7.28D-01
 E= -7517.81093205648     Delta-E=       -0.000000000684 Rises=F Damp=F
 DIIS: error= 9.53D-08 at cycle  15 NSaved=  15.
 NSaved=15 IEnMin=15 EnMin= -7517.81093205648     IErMin=15 ErrMin= 9.53D-08
 ErrMax= 9.53D-08  0.00D+00 EMaxC= 1.00D-01 BMatC= 1.79D-11 BMatP= 2.48D-10
 IDIUse=1 WtCom= 1.00D+00 WtEn= 0.00D+00
 Coeff-Com: -0.399D-06 0.160D-05-0.446D-06 0.105D-04 0.510D-04 0.563D-04
 Coeff-Com: -0.126D-04-0.112D-02-0.175D-02-0.259D-02-0.462D-02 0.113D-01
 Coeff-Com:  0.749D-01 0.238D+00 0.686D+00
 Coeff:     -0.399D-06 0.160D-05-0.446D-06 0.105D-04 0.510D-04 0.563D-04
 Coeff:     -0.126D-04-0.112D-02-0.175D-02-0.259D-02-0.462D-02 0.113D-01
 Coeff:      0.749D-01 0.238D+00 0.686D+00
 Gap=     0.122 Goal=   None    Shift=    0.000
 RMSDP=1.79D-08 MaxDP=7.41D-07 DE=-6.84D-10 OVMax= 2.78D-06

 Cycle  16  Pass 1  IDiag  1:
 RMSU=  9.47D-09    CP:  1.00D+00  6.67D-01  1.73D-01  8.56D-01  5.35D-01
                    CP:  4.30D-01  5.07D-01  9.27D-01  5.19D-01  5.37D-01
                    CP:  8.32D-01  8.98D-01  9.22D-01  8.21D-01  9.01D-01
 E= -7517.81093205644     Delta-E=        0.000000000038 Rises=F Damp=F
 DIIS: error= 2.73D-08 at cycle  16 NSaved=  16.
 NSaved=16 IEnMin=15 EnMin= -7517.81093205648     IErMin=16 ErrMin= 2.73D-08
 ErrMax= 2.73D-08  0.00D+00 EMaxC= 1.00D-01 BMatC= 2.25D-12 BMatP= 1.79D-11
 IDIUse=1 WtCom= 1.00D+00 WtEn= 0.00D+00
 Coeff-Com:  0.235D-06-0.422D-06-0.101D-06 0.564D-05 0.246D-04 0.264D-04
 Coeff-Com:  0.171D-04-0.266D-03-0.626D-03-0.116D-02-0.355D-02-0.676D-02
 Coeff-Com: -0.180D-03 0.664D-01 0.348D+00 0.599D+00
 Coeff:      0.235D-06-0.422D-06-0.101D-06 0.564D-05 0.246D-04 0.264D-04
 Coeff:      0.171D-04-0.266D-03-0.626D-03-0.116D-02-0.355D-02-0.676D-02
 Coeff:     -0.180D-03 0.664D-01 0.348D+00 0.599D+00
 Gap=     0.122 Goal=   None    Shift=    0.000
 RMSDP=5.85D-09 MaxDP=2.67D-07 DE= 3.82D-11 OVMax= 8.32D-07

 SCF Done:  E(RPBE1PBE) =  -7517.81093206     A.U. after   16 cycles
            NFock= 16  Conv=0.58D-08     -V/T= 2.1285
 KE= 6.661930069543D+03 PE=-2.466044055422D+04 EE= 6.946098690865D+03
 Leave Link  502 at Thu Mar  8 05:28:14 2018, MaxMem=   536870912 cpu:      3401.3
 (Enter /share/apps//mg09/l601.exe)
 Copying SCF densities to generalized density rwf, IOpCl= 0 IROHF=0.

 **********************************************************************

            Population analysis using the SCF density.

 **********************************************************************

 Orbital symmetries:
       Occupied  (A) (A) (A) (A) (A) (A) (A) (A) (A) (A) (A) (A)
                 (A) (A) (A) (A) (A) (A) (A) (A) (A) (A) (A) (A)
                 (A) (A) (A) (A) (A) (A) (A) (A) (A) (A) (A) (A)
                 (A) (A) (A) (A) (A) (A) (A) (A) (A) (A) (A) (A)
                 (A) (A) (A) (A) (A) (A) (A) (A) (A) (A) (A) (A)
                 (A) (A) (A) (A) (A) (A) (A) (A) (A) (A) (A) (A)
                 (A) (A) (A) (A) (A) (A) (A) (A) (A) (A) (A) (A)
                 (A) (A) (A) (A) (A) (A) (A) (A) (A) (A) (A) (A)
                 (A) (A) (A) (A) (A) (A) (A) (A) (A) (A) (A) (A)
                 (A) (A) (A) (A) (A) (A) (A) (A)
       Virtual   (A) (A) (A) (A) (A) (A) (A) (A) (A) (A) (A) (A)
                 (A) (A) (A) (A) (A) (A) (A) (A) (A) (A) (A) (A)
                 (A) (A) (A) (A) (A) (A) (A) (A) (A) (A) (A) (A)
                 (A) (A) (A) (A) (A) (A) (A) (A) (A) (A) (A) (A)
                 (A) (A) (A) (A) (A) (A) (A) (A) (A) (A) (A) (A)
                 (A) (A) (A) (A) (A) (A) (A) (A) (A) (A) (A) (A)
                 (A) (A) (A) (A) (A) (A) (A) (A) (A) (A) (A) (A)
                 (A) (A) (A) (A) (A) (A) (A) (A) (A) (A) (A) (A)
                 (A) (A) (A) (A) (A) (A) (A) (A) (A) (A) (A) (A)
                 (A) (A) (A) (A) (A) (A) (A) (A) (A) (A) (A) (A)
                 (A) (A) (A) (A) (A) (A) (A) (A) (A) (A) (A) (A)
                 (A) (A) (A) (A) (A) (A) (A) (A) (A) (A) (A) (A)
                 (A) (A) (A) (A) (A) (A) (A) (A) (A) (A) (A) (A)
                 (A) (A) (A) (A) (A) (A) (A) (A) (A) (A) (A) (A)
                 (A) (A) (A) (A) (A) (A) (A) (A) (A) (A) (A) (A)
                 (A) (A) (A) (A) (A) (A) (A) (A) (A) (A) (A) (A)
                 (A) (A) (A) (A) (A) (A) (A) (A) (A) (A) (A) (A)
                 (A) (A) (A) (A) (A) (A) (A) (A) (A) (A) (A) (A)
                 (A) (A) (A) (A) (A) (A) (A) (A) (A) (A) (A) (A)
                 (A) (A) (A) (A) (A) (A) (A) (A) (A) (A) (A) (A)
                 (A) (A) (A) (A) (A) (A) (A) (A) (A) (A) (A) (A)
                 (A) (A) (A) (A) (A) (A) (A) (A) (A) (A) (A) (A)
                 (A) (A) (A) (A) (A) (A) (A) (A) (A) (A) (A) (A)
                 (A) (A) (A) (A) (A) (A) (A) (A) (A) (A) (A) (A)
                 (A) (A) (A) (A) (A) (A) (A) (A) (A) (A) (A) (A)
                 (A) (A) (A) (A) (A) (A) (A) (A) (A) (A) (A) (A)
                 (A) (A) (A) (A) (A) (A) (A) (A) (A) (A) (A) (A)
                 (A) (A) (A) (A)
 The electronic state is 1-A.
 Alpha  occ. eigenvalues -- -399.10439-399.09851-399.09268 -49.91982 -49.91410
 Alpha  occ. eigenvalues --  -49.90847 -44.40081 -44.40043 -44.39995 -44.39499
 Alpha  occ. eigenvalues --  -44.39475 -44.39426 -44.38926 -44.38908 -44.38868
 Alpha  occ. eigenvalues --   -6.28474  -6.27907  -6.27345  -6.02097  -6.01964
 Alpha  occ. eigenvalues --   -6.01737  -6.01047  -5.13548  -5.12941  -4.43954
 Alpha  occ. eigenvalues --   -4.43839  -4.43681  -4.43363  -4.43294  -4.43125
 Alpha  occ. eigenvalues --   -4.42785  -4.42721  -4.42582  -3.74404  -3.74257
 Alpha  occ. eigenvalues --   -3.74211  -3.74091  -3.74061  -3.74035  -3.73994
 Alpha  occ. eigenvalues --   -3.73957  -3.73630  -3.73383  -3.73154  -3.73011
 Alpha  occ. eigenvalues --   -3.46782  -3.46652  -3.46557  -3.46201  -3.46088
 Alpha  occ. eigenvalues --   -3.45881  -1.23406  -1.23379  -1.23241  -1.23150
 Alpha  occ. eigenvalues --   -1.23149  -1.22833  -1.22809  -1.22655  -1.22614
 Alpha  occ. eigenvalues --   -1.22587  -1.22252  -1.22237  -1.22126  -1.22061
 Alpha  occ. eigenvalues --   -1.22030  -1.08563  -1.08265  -1.08107  -1.07995
 Alpha  occ. eigenvalues --   -1.07924  -1.07853  -1.07812  -1.07748  -1.07696
 Alpha  occ. eigenvalues --   -1.07634  -1.07483  -1.07357  -1.07267  -1.07132
 Alpha  occ. eigenvalues --   -1.07125  -1.06993  -1.06890  -1.06715  -1.06633
 Alpha  occ. eigenvalues --   -1.06571  -1.02971  -1.02937  -1.02879  -1.02833
 Alpha  occ. eigenvalues --   -1.02732  -1.02393  -1.02349  -1.02250  -1.02075
 Alpha  occ. eigenvalues --   -1.02062  -0.66860  -0.62139  -0.59465  -0.56165
 Alpha  occ. eigenvalues --   -0.50935  -0.46553  -0.44909  -0.42570  -0.39914
 Alpha  occ. eigenvalues --   -0.29014  -0.27909  -0.26472  -0.25616  -0.24543
 Alpha  occ. eigenvalues --   -0.24228  -0.23158  -0.23042  -0.22256  -0.20555
 Alpha  occ. eigenvalues --   -0.20044
 Alpha virt. eigenvalues --   -0.07865  -0.07076  -0.06985  -0.06473  -0.05802
 Alpha virt. eigenvalues --   -0.05408  -0.05076  -0.04712  -0.04426  -0.04036
 Alpha virt. eigenvalues --   -0.03464  -0.02107  -0.01545   0.03603   0.04375
 Alpha virt. eigenvalues --    0.04609   0.06564   0.07931   0.08635   0.08950
 Alpha virt. eigenvalues --    0.09364   0.10085   0.10147   0.10307   0.10933
 Alpha virt. eigenvalues --    0.11431   0.11660   0.11949   0.12048   0.13255
 Alpha virt. eigenvalues --    0.13682   0.14969   0.15223   0.16552   0.17060
 Alpha virt. eigenvalues --    0.17910   0.18608   0.19898   0.20458   0.20844
 Alpha virt. eigenvalues --    0.21124   0.22110   0.22904   0.23676   0.24026
 Alpha virt. eigenvalues --    0.24978   0.25457   0.26325   0.26475   0.28652
 Alpha virt. eigenvalues --    0.29402   0.30075   0.30376   0.31265   0.31618
 Alpha virt. eigenvalues --    0.31942   0.32231   0.32785   0.33512   0.33981
 Alpha virt. eigenvalues --    0.34432   0.35228   0.35430   0.36649   0.37990
 Alpha virt. eigenvalues --    0.38579   0.39741   0.40827   0.41079   0.41341
 Alpha virt. eigenvalues --    0.42242   0.42511   0.43278   0.44104   0.45485
 Alpha virt. eigenvalues --    0.46261   0.47004   0.47677   0.47988   0.48525
 Alpha virt. eigenvalues --    0.49084   0.49478   0.50412   0.50928   0.51442
 Alpha virt. eigenvalues --    0.52118   0.53915   0.55809   0.56006   0.56463
 Alpha virt. eigenvalues --    0.56688   0.57150   0.58058   0.58539   0.58995
 Alpha virt. eigenvalues --    0.59602   0.60188   0.60453   0.61447   0.62027
 Alpha virt. eigenvalues --    0.62778   0.62983   0.63640   0.64720   0.65930
 Alpha virt. eigenvalues --    0.66397   0.67331   0.67924   0.68805   0.68945
 Alpha virt. eigenvalues --    0.71159   0.71788   0.73364   0.74562   0.75120
 Alpha virt. eigenvalues --    0.75771   0.76047   0.76728   0.77742   0.78878
 Alpha virt. eigenvalues --    0.79999   0.80366   0.81081   0.81939   0.83173
 Alpha virt. eigenvalues --    0.83785   0.84609   0.84841   0.85423   0.86407
 Alpha virt. eigenvalues --    0.87282   0.88038   0.88457   0.89031   0.89517
 Alpha virt. eigenvalues --    0.90177   0.91735   0.92174   0.92908   0.93499
 Alpha virt. eigenvalues --    0.94355   0.94937   0.96097   0.96545   0.97615
 Alpha virt. eigenvalues --    0.98238   0.99035   1.00191   1.01280   1.01659
 Alpha virt. eigenvalues --    1.04105   1.05291   1.06049   1.07119   1.07852
 Alpha virt. eigenvalues --    1.08625   1.09085   1.10145   1.11646   1.12463
 Alpha virt. eigenvalues --    1.13079   1.14992   1.15742   1.16381   1.17420
 Alpha virt. eigenvalues --    1.18116   1.18407   1.18887   1.19268   1.19681
 Alpha virt. eigenvalues --    1.20342   1.20635   1.20811   1.21558   1.21908
 Alpha virt. eigenvalues --    1.22473   1.22680   1.23080   1.23367   1.23878
 Alpha virt. eigenvalues --    1.24492   1.24764   1.25066   1.25283   1.25791
 Alpha virt. eigenvalues --    1.26500   1.26658   1.28194   1.28721   1.29209
 Alpha virt. eigenvalues --    1.29481   1.31384   1.31954   1.32620   1.33534
 Alpha virt. eigenvalues --    1.35557   1.36341   1.37081   1.39251   1.39560
 Alpha virt. eigenvalues --    1.40256   1.40942   1.42012   1.42603   1.43907
 Alpha virt. eigenvalues --    1.44816   1.45347   1.47507   1.48570   1.49274
 Alpha virt. eigenvalues --    1.49819   1.50219   1.50566   1.51708   1.52516
 Alpha virt. eigenvalues --    1.54157   1.55256   1.56920   1.59095   1.59580
 Alpha virt. eigenvalues --    1.62958   1.70105   1.71216   2.07269   2.09274
 Alpha virt. eigenvalues --    2.09753   2.10978   2.13171   2.14412   2.15631
 Alpha virt. eigenvalues --    2.16520   2.17713   2.18524   2.19957   2.22527
 Alpha virt. eigenvalues --    2.22974   2.23420   2.24223   2.25050   2.25578
 Alpha virt. eigenvalues --    2.26698   2.29022   2.29626   2.30390   2.31303
 Alpha virt. eigenvalues --    2.33512   2.35271   2.37340   2.39178   2.40393
 Alpha virt. eigenvalues --    2.40784   2.41269   2.42285   2.43020   2.45852
 Alpha virt. eigenvalues --    2.46660   2.49294   2.51746   2.52881   2.55011
 Alpha virt. eigenvalues --    2.56873   2.60554   2.61513   2.63014   2.67866
 Alpha virt. eigenvalues --    2.68177   2.71165   2.73638   2.75050   2.75957
 Alpha virt. eigenvalues --    2.78195   2.79449   2.80484   2.81162   2.81503
 Alpha virt. eigenvalues --    2.82643   2.83682   2.85516   2.86392   2.87258
 Alpha virt. eigenvalues --    3.23074   3.24532   3.28284   3.35485   3.38384
 Alpha virt. eigenvalues --    3.42782   3.92150   3.93012   3.97605   3.98443
 Alpha virt. eigenvalues --    4.01026   4.04536   4.06321   4.08569   4.09904
 Alpha virt. eigenvalues --    5.21187   5.31356   5.45253  35.36309  35.40102
 Alpha virt. eigenvalues --   35.41727  35.43704  35.46134  35.47232  35.50068
 Alpha virt. eigenvalues --   35.51400  35.53300  35.55087  35.60272  35.63547
 Alpha virt. eigenvalues --   35.86099  35.94331  36.03359  36.07145  36.19961
 Alpha virt. eigenvalues --   36.21926  36.96423  36.97442  36.99685  37.06332
 Alpha virt. eigenvalues --   37.08672  37.16954 113.58064 113.59115 120.21409
 Alpha virt. eigenvalues --  120.23619 120.25267 120.25607
          Condensed to atoms (all electrons):
               1          2          3          4          5          6
     1  Ge  31.515833  -0.014672   0.061917  -0.023395   0.187370   0.082731
     2  Ge  -0.014672  31.608091  -0.016264   0.145101  -0.011168   0.109478
     3  Ge   0.061917  -0.016264  31.528099   0.083404   0.184229  -0.018004
     4  Bi  -0.023395   0.145101   0.083404  22.281518   0.152650   0.116450
     5  Sn   0.187370  -0.011168   0.184229   0.152650  21.420884   0.134496
     6  Sn   0.082731   0.109478  -0.018004   0.116450   0.134496  21.365732
     7  Bi   0.150430  -0.022132   0.162045  -0.023003  -0.021967  -0.016021
     8  Bi  -0.019078   0.183285   0.112735   0.169108  -0.017612  -0.019021
     9  Bi   0.142916   0.193589  -0.019055  -0.024486  -0.018092   0.156684
               7          8          9
     1  Ge   0.150430  -0.019078   0.142916
     2  Ge  -0.022132   0.183285   0.193589
     3  Ge   0.162045   0.112735  -0.019055
     4  Bi  -0.023003   0.169108  -0.024486
     5  Sn  -0.021967  -0.017612  -0.018092
     6  Sn  -0.016021  -0.019021   0.156684
     7  Bi  22.358196   0.189454   0.179500
     8  Bi   0.189454  22.380546  -0.032646
     9  Bi   0.179500  -0.032646  22.379187
 Mulliken charges:
               1
     1  Ge  -0.084053
     2  Ge  -0.175309
     3  Ge  -0.079106
     4  Bi   0.122653
     5  Sn  -0.010788
     6  Sn   0.087475
     7  Bi   0.043498
     8  Bi   0.053229
     9  Bi   0.042402
 Sum of Mulliken charges =   0.00000
 Mulliken charges with hydrogens summed into heavy atoms:
               1
     1  Ge  -0.084053
     2  Ge  -0.175309
     3  Ge  -0.079106
     4  Bi   0.122653
     5  Sn  -0.010788
     6  Sn   0.087475
     7  Bi   0.043498
     8  Bi   0.053229
     9  Bi   0.042402
 Electronic spatial extent (au):  <R**2>=           5933.7782
 Charge=              0.0000 electrons
 Dipole moment (field-independent basis, Debye):
    X=              0.4119    Y=              0.6654    Z=             -0.1934  Tot=              0.8061
 Quadrupole moment (field-independent basis, Debye-Ang):
   XX=           -212.5633   YY=           -217.6433   ZZ=           -223.1710
   XY=              1.5553   XZ=              0.0913   YZ=             -0.2411
 Traceless Quadrupole moment (field-independent basis, Debye-Ang):
   XX=              5.2292   YY=              0.1492   ZZ=             -5.3785
   XY=              1.5553   XZ=              0.0913   YZ=             -0.2411
 Octapole moment (field-independent basis, Debye-Ang**2):
  XXX=             78.5018  YYY=             77.8552  ZZZ=            -37.7811  XYY=             27.2026
  XXY=             29.8068  XXZ=            -17.4429  XZZ=             29.9829  YZZ=             23.5963
  YYZ=            -23.2881  XYZ=              3.8805
 Hexadecapole moment (field-independent basis, Debye-Ang**3):
 XXXX=          -3525.3585 YYYY=          -3271.2954 ZZZZ=          -2950.0681 XXXY=            -83.1651
 XXXZ=             84.8766 YYYX=            -51.6034 YYYZ=             -2.5995 ZZZX=             36.7203
 ZZZY=             15.2353 XXYY=          -1133.6926 XXZZ=          -1082.3688 YYZZ=          -1030.3262
 XXYZ=             12.0763 YYXZ=              7.6305 ZZXY=            -24.6395
 N-N= 3.534600861760D+03 E-N=-2.466044052855D+04  KE= 6.661930069543D+03
 No NMR shielding tensors so no spin-rotation constants.
 Leave Link  601 at Thu Mar  8 05:28:14 2018, MaxMem=   536870912 cpu:         1.4
 (Enter /share/apps//mg09/l701.exe)
 Compute integral first derivatives.
 ... and contract with generalized density number  0.
   1 Symmetry operations used in ECPInt.
 ECPInt:  NShTT=   10440 NPrTT=   41973 LenC2=    9661 LenP2D=   27499.
 LDataN:  DoStor=T MaxTD1= 9 Len=  602
 Leave Link  701 at Thu Mar  8 05:28:37 2018, MaxMem=   536870912 cpu:        85.8
 (Enter /share/apps//mg09/l702.exe)
 L702 exits ... SP integral derivatives will be done elsewhere.
 Leave Link  702 at Thu Mar  8 05:28:37 2018, MaxMem=   536870912 cpu:         0.1
 (Enter /share/apps//mg09/l703.exe)
 Compute integral first derivatives, UseDBF=F ICtDFT=           0.
 Integral derivatives from FoFJK, PRISM(SPDF).
 Calling FoFJK, ICntrl=      2127 FMM=F ISym2X=0 I1Cent= 0 IOpClX= 0 NMat=1 NMatS=1 NMatT=0.
 FoFJK:  IHMeth= 1 ICntrl=    2127 DoSepK=F KAlg= 0 I1Cent=   0 FoldK=F
 IRaf=         0 NMat=   1 IRICut=       1 DoRegI=T DoRafI=F ISym2E= 0.
 FoFCou: FMM=F IPFlag=           0 FMFlag=      100000 FMFlg1=         800
         NFxFlg=           0 DoJE=F BraDBF=F KetDBF=F FulRan=T
         wScrn=  0.000000 ICntrl=    2127 IOpCl=  0 I1Cent=           0 NGrid=           0
         NMat0=    1 NMatS0=      1 NMatT0=    0 NMatD0=    1 NMtDS0=    0 NMtDT0=    0
 Symmetry not used in FoFCou.
 Defaulting to unpruned grid for atomic number  83.
 Defaulting to unpruned grid for atomic number  83.
 Defaulting to unpruned grid for atomic number  83.
 Defaulting to unpruned grid for atomic number  83.
 Leave Link  703 at Thu Mar  8 05:32:10 2018, MaxMem=   536870912 cpu:       791.6
 (Enter /share/apps//mg09/l716.exe)
 Dipole        = 1.62046957D-01 2.61786417D-01-7.60812941D-02
 ***** Axes restored to original set *****
 -------------------------------------------------------------------
 Center     Atomic                   Forces (Hartrees/Bohr)
 Number     Number              X              Y              Z
 -------------------------------------------------------------------
      1       32          -0.006369044    0.009778751   -0.008239398
      2       32          -0.001625805   -0.002209048    0.011905820
      3       32           0.000932474   -0.009820321   -0.008788309
      4       83           0.008110417   -0.005349029    0.001972114
      5       50           0.012361899    0.003410034   -0.007480783
      6       50           0.006359542    0.010525172    0.006049819
      7       83          -0.009222309   -0.002956090   -0.000437321
      8       83          -0.002858497   -0.008078212    0.001428129
      9       83          -0.007688678    0.004698743    0.003589929
 -------------------------------------------------------------------
 Cartesian Forces:  Max     0.012361899 RMS     0.006933364
 Force constants in Cartesian coordinates: 
                1             2             3             4             5 
      1  0.171015D+00
      2 -0.487254D-02  0.179793D+00
      3 -0.224746D-02 -0.445035D-01  0.187420D+00
      4  0.582152D-02  0.647012D-03 -0.866523D-03  0.114233D+00
      5 -0.140987D-03  0.232101D-02 -0.691673D-03 -0.109546D-01  0.134011D+00
      6 -0.229138D-02  0.901509D-02 -0.430903D-02 -0.755870D-02 -0.113219D-02
      7 -0.162962D-01  0.933115D-02  0.446481D-02  0.559572D-02  0.147151D-02
      8  0.527877D-02 -0.377034D-01 -0.173641D-01  0.918947D-03  0.431263D-02
      9 -0.561717D-02  0.149518D-01 -0.312612D-01 -0.154739D-02  0.165542D-02
     10 -0.110536D-02  0.873040D-02 -0.788710D-02 -0.502032D-01  0.171235D-01
     11  0.381245D-02  0.283311D-03  0.713624D-02  0.124743D-01 -0.258123D-01
     12 -0.160585D-02  0.497568D-02  0.227706D-02  0.386098D-01 -0.111493D-01
     13 -0.604074D-01 -0.268434D-02  0.177338D-01  0.244051D-02 -0.284777D-02
     14  0.263946D-01 -0.301217D-01  0.507321D-03 -0.199217D-02  0.767968D-02
     15 -0.136477D-01  0.114796D-01 -0.301893D-01 -0.131684D-03  0.121566D-02
     16 -0.243442D-01 -0.141049D-01 -0.909297D-02 -0.206271D-01 -0.126177D-01
     17  0.640337D-02 -0.286497D-01  0.164831D-01 -0.141983D-01 -0.382901D-01
     18 -0.161191D-01 -0.131024D-01 -0.320034D-01  0.159144D-01  0.222875D-01
     19 -0.466764D-01 -0.629233D-02 -0.673590D-02 -0.148979D-02 -0.230376D-02
     20 -0.373330D-01 -0.585342D-01  0.704287D-02 -0.234926D-02  0.744405D-02
     21  0.144323D-01  0.234297D-01 -0.265962D-01 -0.392782D-02  0.248672D-03
     22  0.582582D-02 -0.205057D-02  0.906957D-03 -0.181860D-01 -0.544702D-02
     23  0.159355D-02 -0.362390D-02  0.940911D-02 -0.123282D-01 -0.521089D-01
     24 -0.109012D-02  0.116325D-03  0.188595D-02 -0.141565D-01 -0.357530D-01
     25 -0.338331D-01  0.112961D-01  0.372441D-02 -0.375849D-01  0.157169D-01
     26 -0.113618D-02 -0.237646D-01  0.219806D-01  0.277823D-01 -0.395571D-01
     27  0.281865D-01 -0.636237D-02 -0.672234D-01 -0.263356D-01  0.233190D-01
                6             7             8             9            10 
      6  0.185329D+00
      7  0.291806D-02  0.167342D+00
      8 -0.680900D-02  0.525819D-02  0.165100D+00
      9 -0.573411D-02 -0.210233D-01  0.358548D-01  0.202976D+00
     10  0.356102D-02 -0.335024D-01  0.122233D-01 -0.182500D-03  0.209823D+00
     11  0.588036D-02 -0.437046D-02 -0.214534D-01 -0.169786D-01 -0.280421D-01
     12 -0.457865D-01 -0.253294D-01  0.263426D-02 -0.407697D-01  0.448211D-02
     13  0.671691D-02 -0.397516D-01 -0.756205D-02  0.154066D-01 -0.294571D-01
     14  0.306556D-02 -0.312394D-01 -0.474134D-01  0.702660D-02 -0.894427D-02
     15 -0.318878D-02 -0.107292D-01 -0.212189D-01 -0.329596D-01  0.172495D-01
     16 -0.374976D-02  0.523478D-02 -0.527166D-02 -0.364973D-02 -0.295766D-01
     17 -0.116171D-01 -0.174775D-02 -0.223828D-02 -0.107306D-01 -0.104146D-01
     18 -0.325288D-01  0.888429D-03 -0.577706D-02 -0.130880D-03 -0.749569D-02
     19 -0.395447D-02 -0.702221D-01 -0.209131D-02  0.111114D-02 -0.500132D-02
     20  0.162672D-03  0.231428D-01 -0.308602D-01 -0.123489D-01 -0.287391D-02
     21 -0.527043D-02  0.339655D-01 -0.120884D-01 -0.332571D-01 -0.550273D-02
     22  0.151204D-02 -0.215345D-01 -0.137104D-01  0.874011D-02 -0.578647D-01
     23 -0.109042D-02 -0.409660D-02 -0.310491D-01 -0.115967D-01  0.422224D-02
     24 -0.477416D-01  0.154068D-01  0.260948D-01 -0.585864D-01 -0.809148D-02
     25  0.284627D-02  0.313432D-02  0.495620D-02  0.676220D-02 -0.311221D-02
     26  0.252506D-02  0.225064D-02  0.130520D-02 -0.783378D-02  0.797534D-02
     27 -0.407701D-01 -0.561700D-03 -0.132639D-02 -0.276800D-03  0.386682D-02
               11            12            13            14            15 
     11  0.156147D+00
     12 -0.177952D-01  0.156299D+00
     13  0.163547D-01 -0.149542D-01  0.152719D+00
     14 -0.344757D-01  0.258424D-01  0.164654D-01  0.119858D+00
     15  0.174305D-01 -0.435393D-01 -0.316018D-01 -0.140333D-01  0.139060D+00
     16  0.237599D-01  0.269368D-03 -0.239986D-01  0.616958D-02  0.225755D-01
     17 -0.495894D-01 -0.122475D-01 -0.137402D-01 -0.281749D-01  0.268691D-03
     18  0.258909D-02 -0.180638D-01 -0.430994D-02 -0.261208D-01 -0.427168D-01
     19  0.538090D-02 -0.202326D-02 -0.401468D-02 -0.494979D-02  0.377086D-02
     20  0.438568D-02 -0.195339D-02 -0.435762D-02  0.941284D-02  0.202933D-02
     21  0.141293D-02  0.468462D-02 -0.120807D-02  0.523823D-03  0.372847D-02
     22 -0.321536D-01  0.370663D-02  0.266672D-02 -0.392153D-03  0.491355D-02
     23 -0.312271D-01  0.917363D-02 -0.531378D-02 -0.222990D-03  0.556560D-02
     24  0.395056D-02 -0.201894D-01  0.553343D-02  0.191408D-02  0.555024D-02
     25  0.278387D-02 -0.315516D-02 -0.196486D-03 -0.151170D-02  0.760091D-02
     26  0.174149D-02  0.519326D-03  0.368569D-02  0.345819D-02 -0.273728D-02
     27 -0.362589D-02  0.508813D-02  0.668330D-02  0.127427D-02  0.425466D-02
               16            17            18            19            20 
     16  0.154334D+00
     17  0.352267D-01  0.174574D+00
     18  0.468213D-02  0.286281D-01  0.138149D+00
     19 -0.908975D-03 -0.837929D-02 -0.400806D-02  0.190012D+00
     20  0.234752D-05  0.125160D-02 -0.211074D-03  0.148052D-01  0.139812D+00
     21 -0.339936D-02 -0.431750D-02  0.463999D-02  0.101448D-01  0.487166D-02
     22  0.352475D-02 -0.856349D-03 -0.242338D-02 -0.341414D-01  0.236359D-01
     23 -0.716818D-02 -0.421444D-02 -0.355742D-02 -0.686578D-02 -0.377781D-01
     24 -0.935818D-04  0.295867D-02  0.552471D-02 -0.539549D-02  0.171345D-01
     25 -0.636378D-01  0.770636D-02  0.128712D-01 -0.275573D-01 -0.146725D-01
     26 -0.259962D-01 -0.246689D-01 -0.473591D-02  0.106961D-01 -0.351333D-01
     27 -0.754164D-02 -0.942577D-02 -0.228701D-01  0.709043D-02 -0.167277D-01
               21            22            23            24            25 
     21  0.112298D+00
     22 -0.253856D-01  0.117773D+00
     23  0.866305D-02  0.279466D-01  0.167702D+00
     24 -0.273729D-01  0.437145D-02 -0.161583D-01  0.135528D+00
     25 -0.191190D-01  0.193593D-02  0.201013D-02  0.351548D-02  0.160852D+00
     26 -0.227439D-01  0.302763D-02 -0.747769D-02 -0.257626D-03 -0.282854D-01
     27 -0.328543D-01  0.365823D-02 -0.408642D-03  0.540166D-02 -0.150463D-01
               26            27 
     26  0.124097D+00
     27  0.132835D-01  0.149250D+00
 Leave Link  716 at Thu Mar  8 05:32:10 2018, MaxMem=   536870912 cpu:         0.1
 (Enter /share/apps//mg09/l103.exe)

 GradGradGradGradGradGradGradGradGradGradGradGradGradGradGradGradGradGrad
 Berny optimization.
 Search for a local minimum.
 Step number   1 out of a maximum of  100
 All quantities printed in internal units (Hartrees-Bohrs-Radians)
 Second derivative matrix not updated -- first step.
 ITU=  0
     Eigenvalues ---    0.08235   0.11420   0.11947   0.13046   0.14114
     Eigenvalues ---    0.14177   0.14555   0.15550   0.16281   0.16738
     Eigenvalues ---    0.17790   0.22266   0.22657   0.23699   0.24778
     Eigenvalues ---    0.26454   0.27265   0.27802   0.28382   0.29353
     Eigenvalues ---    0.32369
 RFO step:  Lambda=-7.87783973D-03 EMin= 8.23495929D-02
 Linear search not attempted -- first point.
 TrRot= -0.001091 -0.000567 -0.000457 -0.000017 -0.000038 -0.000017
 MatCor failed.
 Variable       Old X    -DE/DX   Delta X   Delta X   Delta X     New X
                                 (Linear)    (Quad)   (Total)
    X1        0.97872  -0.00637   0.00000  -0.03569  -0.03702   0.94170
    Y1       -3.36912   0.00978   0.00000   0.05238   0.05178  -3.31734
    Z1        3.23346  -0.00824   0.00000  -0.04657  -0.04699   3.18647
    X2       -0.19142  -0.00163   0.00000  -0.00884  -0.00975  -0.20117
    Y2        0.30347  -0.00221   0.00000  -0.01621  -0.01677   0.28670
    Z2       -4.71239   0.01191   0.00000   0.07206   0.07160  -4.64079
    X3       -0.71164   0.00093   0.00000   0.00267   0.00151  -0.71013
    Y3        2.32082  -0.00982   0.00000  -0.05343  -0.05397   2.26685
    Z3        3.92252  -0.00879   0.00000  -0.05068  -0.05116   3.87135
    X4       -4.13211   0.00811   0.00000   0.04899   0.04800  -4.08412
    Y4        1.72280  -0.00535   0.00000  -0.03072  -0.03115   1.69165
    Z4       -1.03304   0.00197   0.00000   0.01710   0.01649  -1.01655
    X5       -4.20611   0.01236   0.00000   0.07640   0.07511  -4.13100
    Y5       -1.82049   0.00341   0.00000   0.02252   0.02209  -1.79840
    Z5        3.53004  -0.00748   0.00000  -0.05194  -0.05256   3.47749
    X6       -2.56797   0.00636   0.00000   0.03666   0.03550  -2.53247
    Y6       -4.03679   0.01053   0.00000   0.06481   0.06433  -3.97246
    Z6       -1.66000   0.00605   0.00000   0.03779   0.03723  -1.62276
    X7        4.19545  -0.00922   0.00000  -0.05520  -0.05634   4.13911
    Y7        0.89974  -0.00296   0.00000  -0.01764  -0.01835   0.88140
    Z7        2.03603  -0.00044   0.00000  -0.01243  -0.01273   2.02330
    X8        0.93778  -0.00286   0.00000  -0.01239  -0.01329   0.92449
    Y8        4.36534  -0.00808   0.00000  -0.05941  -0.06001   4.30533
    Z8       -1.15686   0.00143   0.00000   0.01163   0.01121  -1.14565
    X9        3.05049  -0.00769   0.00000  -0.04261  -0.04373   3.00676
    Y9       -3.17224   0.00470   0.00000   0.04272   0.04205  -3.13018
    Z9       -1.91477   0.00359   0.00000   0.02726   0.02692  -1.88786
         Item               Value     Threshold  Converged?
 Maximum Force            0.012362     0.000450     NO 
 RMS     Force            0.006933     0.000300     NO 
 Maximum Displacement     0.075114     0.001800     NO 
 RMS     Displacement     0.042383     0.001200     NO 
 Predicted change in Energy=-4.130025D-03
 Lowest energy point so far.  Saving SCF results.
 GradGradGradGradGradGradGradGradGradGradGradGradGradGradGradGradGradGrad

 Leave Link  103 at Thu Mar  8 05:32:10 2018, MaxMem=   536870912 cpu:         0.1
 (Enter /share/apps//mg09/l202.exe)
                          Input orientation:                          
 ---------------------------------------------------------------------
 Center     Atomic      Atomic             Coordinates (Angstroms)
 Number     Number       Type             X           Y           Z
 ---------------------------------------------------------------------
      1         32           0        0.498326   -1.755460    1.686206
      2         32           0       -0.106455    0.151714   -2.455801
      3         32           0       -0.375786    1.199565    2.048632
      4         83           0       -2.161221    0.895183   -0.537936
      5         50           0       -2.186029   -0.951673    1.840208
      6         50           0       -1.340126   -2.102137   -0.858728
      7         83           0        2.190322    0.466415    1.070683
      8         83           0        0.489221    2.278281   -0.606254
      9         83           0        1.591108   -1.656422   -0.999010
 ---------------------------------------------------------------------
                    Distance matrix (angstroms):
                    1          2          3          4          5
     1  Ge   0.000000
     2  Ge   4.599923   0.000000
     3  Ge   3.102837   4.632542   0.000000
     4  Bi   4.364161   2.907406   3.157651   0.000000
     5  Sn   2.806341   4.898753   2.819264   3.011156   0.000000
     6  Sn   3.158604   3.025298   4.503769   3.124265   3.053420
     7  Bi   2.859799   4.220226   2.842324   4.659123   4.664289
     8  Bi   4.639669   2.880614   2.993373   2.990396   4.855383
     9  Bi   2.900753   2.876337   4.616650   4.561057   4.777509
                    6          7          8          9
     6  Sn   0.000000
     7  Bi   4.773275   0.000000
     8  Bi   4.753769   2.998120   0.000000
     9  Bi   2.968244   3.024752   4.104912   0.000000
 Stoichiometry    Bi4Ge3Sn2
 Framework group  C1[X(Bi4Ge3Sn2)]
 Deg. of freedom    21
 Full point group                 C1      NOp   1
 RotChk:  IX=0 Diff= 7.05D-03
 Largest Abelian subgroup         C1      NOp   1
 Largest concise Abelian subgroup C1      NOp   1
                         Standard orientation:                         
 ---------------------------------------------------------------------
 Center     Atomic      Atomic             Coordinates (Angstroms)
 Number     Number       Type             X           Y           Z
 ---------------------------------------------------------------------
      1         32           0        0.505900   -1.759680    1.676091
      2         32           0       -0.113126    0.162821   -2.456715
      3         32           0       -0.368358    1.193555    2.052485
      4         83           0       -2.162011    0.898108   -0.529429
      5         50           0       -2.178302   -0.957714    1.841799
      6         50           0       -1.340616   -2.097604   -0.864177
      7         83           0        2.194903    0.465278    1.063489
      8         83           0        0.487576    2.282672   -0.601095
      9         83           0        1.589949   -1.650015   -1.012250
 ---------------------------------------------------------------------
 Rotational constants (GHZ):      0.1037811      0.0935621      0.0815552
 Leave Link  202 at Thu Mar  8 05:32:11 2018, MaxMem=   536870912 cpu:         0.0
 (Enter /share/apps//mg09/l301.exe)
 Standard basis: def2TZVP (5D, 7F)
 Ernie: Thresh=  0.10000D-02 Tol=  0.10000D-05 Strict=F.
 There are   519 symmetry adapted cartesian basis functions of A   symmetry.
 There are   444 symmetry adapted basis functions of A   symmetry.
   444 basis functions,   963 primitive gaussians,   519 cartesian basis functions
   116 alpha electrons      116 beta electrons
       nuclear repulsion energy      3588.4292324559 Hartrees.
 IExCor= 1009 DFT=T Ex+Corr=PBE1PBE ExCW=0 ScaHFX=  0.250000
 ScaDFX=  0.750000  0.750000  1.000000  1.000000 ScalE2=  1.000000  1.000000
 IRadAn=      0 IRanWt=     -1 IRanGd=            0 ICorTp=0 IEmpDi=  4
 NAtoms=    9 NActive=    9 NUniq=    9 SFac= 1.00D+00 NAtFMM=   60 NAOKFM=F Big=F
 Integral buffers will be    131072 words long.
 Raffenetti 2 integral format.
 Two-electron integral symmetry is turned on.
 Leave Link  301 at Thu Mar  8 05:32:11 2018, MaxMem=   536870912 cpu:         0.2
 (Enter /share/apps//mg09/l302.exe)
 NPDir=0 NMtPBC=     1 NCelOv=     1 NCel=       1 NClECP=     1 NCelD=      1
         NCelK=      1 NCelE2=     1 NClLst=     1 CellRange=     0.0.
 One-electron integrals computed using PRISM.
   1 Symmetry operations used in ECPInt.
 ECPInt:  NShTT=   10440 NPrTT=   41973 LenC2=    9679 LenP2D=   27661.
 LDataN:  DoStor=T MaxTD1= 8 Len=  415
 NBasis=   444 RedAO= T EigKep=  9.56D-04  NBF=   444
 NBsUse=   444 1.00D-06 EigRej= -1.00D+00 NBFU=   444
 Precomputing XC quadrature grid using
 IXCGrd= 4 IRadAn=           0 IRanWt=          -1 IRanGd=           0 AccXCQ= 0.00D+00.
 Defaulting to unpruned grid for atomic number  83.
 Defaulting to unpruned grid for atomic number  83.
 Generated NRdTot=       0 NPtTot=           0 NUsed=           0 NTot=          32
 NSgBfM=   505   505   505   505   505 MxSgAt=     9 MxSgA2=     9.
 Leave Link  302 at Thu Mar  8 05:32:20 2018, MaxMem=   536870912 cpu:        34.1
 (Enter /share/apps//mg09/l303.exe)
 DipDrv:  MaxL=1.
 Leave Link  303 at Thu Mar  8 05:32:20 2018, MaxMem=   536870912 cpu:         0.6
 (Enter /share/apps//mg09/l401.exe)
 Initial guess from the checkpoint file:  "Isomer_27.chk"
 B after Tr=     0.000000    0.000000    0.000000
         Rot=    0.999997   -0.001837   -0.001592   -0.000280 Ang=  -0.28 deg.
 Guess basis will be translated and rotated to current coordinates.
 JPrj=2 DoOrth=T DoCkMO=T.
 Generating alternative initial guess.
 ExpMin= 4.62D-02 ExpMax= 4.66D+05 ExpMxC= 4.50D+03 IAcc=2 IRadAn=         4 AccDes= 0.00D+00
 Harris functional with IExCor= 1009 and IRadAn=       4 diagonalized for initial guess.
 HarFok:  IExCor= 1009 AccDes= 0.00D+00 IRadAn=         4 IDoV= 1 UseB2=F ITyADJ=14
 ICtDFT=  3500011 ScaDFX=  1.000000  1.000000  1.000000  1.000000
 Defaulting to unpruned grid for atomic number  83.
 Defaulting to unpruned grid for atomic number  83.
 Defaulting to unpruned grid for atomic number  83.
 Defaulting to unpruned grid for atomic number  83.
 FoFCou: FMM=F IPFlag=           0 FMFlag=      100000 FMFlg1=           0
         NFxFlg=           0 DoJE=T BraDBF=F KetDBF=T FulRan=T
         wScrn=  0.000000 ICntrl=     500 IOpCl=  0 I1Cent=   200000004 NGrid=           0
         NMat0=    1 NMatS0=      1 NMatT0=    0 NMatD0=    1 NMtDS0=    0 NMtDT0=    0
 Petite list used in FoFCou.
 Harris En= -7518.61212354637    
 Leave Link  401 at Thu Mar  8 05:32:24 2018, MaxMem=   536870912 cpu:        14.9
 (Enter /share/apps//mg09/l502.exe)
 Closed shell SCF:
 Using DIIS extrapolation, IDIIS=  1040.
 Integral symmetry usage will be decided dynamically.
 IVT=     1410107 IEndB=     1410107 NGot=   536870912 MDV=   536322046
 LenX=   536322046 LenY=   536052166
 Requested convergence on RMS density matrix=1.00D-08 within 768 cycles.
 Requested convergence on MAX density matrix=1.00D-06.
 Requested convergence on             energy=1.00D-06.
 No special actions if energy rises.
 Fock matrices will be formed incrementally for  20 cycles.

 Cycle   1  Pass 1  IDiag  1:
 FoFJK:  IHMeth= 1 ICntrl=       0 DoSepK=F KAlg= 0 I1Cent=   0 FoldK=F
 IRaf= 880000000 NMat=   1 IRICut=       1 DoRegI=T DoRafI=F ISym2E= 0.
 FoFCou: FMM=F IPFlag=           0 FMFlag=      100000 FMFlg1=           0
         NFxFlg=           0 DoJE=F BraDBF=F KetDBF=F FulRan=T
         wScrn=  0.000000 ICntrl=       0 IOpCl=  0 I1Cent=           0 NGrid=           0
         NMat0=    1 NMatS0=      1 NMatT0=    0 NMatD0=    1 NMtDS0=    0 NMtDT0=    0
 Symmetry not used in FoFCou.
 Defaulting to unpruned grid for atomic number  83.
 Defaulting to unpruned grid for atomic number  83.
 Defaulting to unpruned grid for atomic number  83.
 Defaulting to unpruned grid for atomic number  83.
 E= -7517.81530896098    
 DIIS: error= 5.66D-03 at cycle   1 NSaved=   1.
 NSaved= 1 IEnMin= 1 EnMin= -7517.81530896098     IErMin= 1 ErrMin= 5.66D-03
 ErrMax= 5.66D-03  0.00D+00 EMaxC= 1.00D-01 BMatC= 8.47D-03 BMatP= 8.47D-03
 IDIUse=3 WtCom= 9.43D-01 WtEn= 5.66D-02
 Coeff-Com:  0.100D+01
 Coeff-En:   0.100D+01
 Coeff:      0.100D+01
 Gap=     7.557 Goal=   None    Shift=    0.000
 GapD=    7.557 DampG=2.000 DampE=1.000 DampFc=2.0000 IDamp=-1.
 RMSDP=1.83D-04 MaxDP=5.67D-03              OVMax= 2.01D-02

 Cycle   2  Pass 1  IDiag  1:
 RMSU=  1.83D-04    CP:  1.00D+00
 E= -7517.81532946447     Delta-E=       -0.000020503488 Rises=F Damp=F
 DIIS: error= 1.41D-03 at cycle   2 NSaved=   2.
 NSaved= 2 IEnMin= 2 EnMin= -7517.81532946447     IErMin= 2 ErrMin= 1.41D-03
 ErrMax= 1.41D-03  0.00D+00 EMaxC= 1.00D-01 BMatC= 1.55D-03 BMatP= 8.47D-03
 IDIUse=3 WtCom= 9.86D-01 WtEn= 1.41D-02
 Coeff-Com:  0.193D+00 0.807D+00
 Coeff-En:   0.494D+00 0.506D+00
 Coeff:      0.198D+00 0.802D+00
 Gap=     0.124 Goal=   None    Shift=    0.000
 RMSDP=2.09D-04 MaxDP=8.10D-03 DE=-2.05D-05 OVMax= 1.51D-02

 Cycle   3  Pass 1  IDiag  1:
 RMSU=  1.88D-04    CP:  9.99D-01  5.26D-01
 E= -7517.81354307672     Delta-E=        0.001786387751 Rises=F Damp=F
 DIIS: error= 2.04D-03 at cycle   3 NSaved=   3.
 NSaved= 3 IEnMin= 2 EnMin= -7517.81532946447     IErMin= 2 ErrMin= 1.41D-03
 ErrMax= 2.04D-03  0.00D+00 EMaxC= 1.00D-01 BMatC= 3.68D-03 BMatP= 1.55D-03
 IDIUse=3 WtCom= 1.81D-01 WtEn= 8.19D-01
 Coeff-Com:  0.536D-02 0.605D+00 0.390D+00
 Coeff-En:   0.000D+00 0.663D+00 0.337D+00
 Coeff:      0.972D-03 0.652D+00 0.347D+00
 Gap=     0.125 Goal=   None    Shift=    0.000
 RMSDP=1.14D-04 MaxDP=4.69D-03 DE= 1.79D-03 OVMax= 1.05D-02

 Cycle   4  Pass 1  IDiag  1:
 RMSU=  3.81D-05    CP:  9.99D-01  7.90D-01  4.93D-01
 E= -7517.81640004548     Delta-E=       -0.002856968757 Rises=F Damp=F
 DIIS: error= 4.42D-04 at cycle   4 NSaved=   4.
 NSaved= 4 IEnMin= 4 EnMin= -7517.81640004548     IErMin= 4 ErrMin= 4.42D-04
 ErrMax= 4.42D-04  0.00D+00 EMaxC= 1.00D-01 BMatC= 1.71D-04 BMatP= 1.55D-03
 IDIUse=3 WtCom= 9.96D-01 WtEn= 4.42D-03
 Coeff-Com: -0.335D-04 0.430D+00 0.232D+00 0.337D+00
 Coeff-En:   0.000D+00 0.711D-01 0.000D+00 0.929D+00
 Coeff:     -0.334D-04 0.429D+00 0.231D+00 0.340D+00
 Gap=     0.126 Goal=   None    Shift=    0.000
 RMSDP=3.58D-05 MaxDP=1.30D-03 DE=-2.86D-03 OVMax= 4.07D-03

 Cycle   5  Pass 1  IDiag  1:
 RMSU=  1.51D-05    CP:  9.99D-01  8.44D-01  4.47D-01  2.23D-01
 E= -7517.81653453996     Delta-E=       -0.000134494487 Rises=F Damp=F
 DIIS: error= 1.12D-04 at cycle   5 NSaved=   5.
 NSaved= 5 IEnMin= 5 EnMin= -7517.81653453996     IErMin= 5 ErrMin= 1.12D-04
 ErrMax= 1.12D-04  0.00D+00 EMaxC= 1.00D-01 BMatC= 1.80D-05 BMatP= 1.71D-04
 IDIUse=3 WtCom= 9.99D-01 WtEn= 1.12D-03
 Coeff-Com: -0.894D-03 0.227D+00 0.110D+00 0.270D+00 0.393D+00
 Coeff-En:   0.000D+00 0.000D+00 0.000D+00 0.144D+00 0.856D+00
 Coeff:     -0.893D-03 0.227D+00 0.110D+00 0.270D+00 0.394D+00
 Gap=     0.126 Goal=   None    Shift=    0.000
 RMSDP=1.12D-05 MaxDP=5.27D-04 DE=-1.34D-04 OVMax= 1.28D-03

 Cycle   6  Pass 1  IDiag  1:
 RMSU=  3.91D-06    CP:  9.99D-01  8.52D-01  4.39D-01  4.23D-01  5.58D-01
 E= -7517.81655509051     Delta-E=       -0.000020550542 Rises=F Damp=F
 DIIS: error= 1.36D-05 at cycle   6 NSaved=   6.
 NSaved= 6 IEnMin= 6 EnMin= -7517.81655509051     IErMin= 6 ErrMin= 1.36D-05
 ErrMax= 1.36D-05  0.00D+00 EMaxC= 1.00D-01 BMatC= 3.61D-07 BMatP= 1.80D-05
 IDIUse=1 WtCom= 1.00D+00 WtEn= 0.00D+00
 Coeff-Com: -0.401D-03 0.711D-01 0.343D-01 0.983D-01 0.186D+00 0.611D+00
 Coeff:     -0.401D-03 0.711D-01 0.343D-01 0.983D-01 0.186D+00 0.611D+00
 Gap=     0.126 Goal=   None    Shift=    0.000
 RMSDP=2.68D-06 MaxDP=1.67D-04 DE=-2.06D-05 OVMax= 3.38D-04

 Cycle   7  Pass 1  IDiag  1:
 RMSU=  2.22D-06    CP:  9.99D-01  8.56D-01  4.42D-01  4.21D-01  6.23D-01
                    CP:  8.10D-01
 E= -7517.81655515261     Delta-E=       -0.000000062108 Rises=F Damp=F
 DIIS: error= 1.51D-05 at cycle   7 NSaved=   7.
 NSaved= 7 IEnMin= 7 EnMin= -7517.81655515261     IErMin= 6 ErrMin= 1.36D-05
 ErrMax= 1.51D-05  0.00D+00 EMaxC= 1.00D-01 BMatC= 2.57D-07 BMatP= 3.61D-07
 IDIUse=1 WtCom= 1.00D+00 WtEn= 0.00D+00
 Coeff-Com: -0.155D-03 0.146D-01 0.743D-02 0.297D-01 0.741D-01 0.476D+00
 Coeff-Com:  0.398D+00
 Coeff:     -0.155D-03 0.146D-01 0.743D-02 0.297D-01 0.741D-01 0.476D+00
 Coeff:      0.398D+00
 Gap=     0.126 Goal=   None    Shift=    0.000
 RMSDP=1.86D-06 MaxDP=8.16D-05 DE=-6.21D-08 OVMax= 2.11D-04

 Cycle   8  Pass 1  IDiag  1:
 RMSU=  9.97D-07    CP:  9.99D-01  8.56D-01  4.44D-01  4.20D-01  6.30D-01
                    CP:  1.03D+00  4.37D-01
 E= -7517.81655540336     Delta-E=       -0.000000250746 Rises=F Damp=F
 DIIS: error= 7.37D-06 at cycle   8 NSaved=   8.
 NSaved= 8 IEnMin= 8 EnMin= -7517.81655540336     IErMin= 8 ErrMin= 7.37D-06
 ErrMax= 7.37D-06  0.00D+00 EMaxC= 1.00D-01 BMatC= 7.01D-08 BMatP= 2.57D-07
 IDIUse=1 WtCom= 1.00D+00 WtEn= 0.00D+00
 Coeff-Com:  0.978D-05-0.146D-01-0.637D-02-0.100D-01-0.324D-02 0.214D+00
 Coeff-Com:  0.351D+00 0.469D+00
 Coeff:      0.978D-05-0.146D-01-0.637D-02-0.100D-01-0.324D-02 0.214D+00
 Coeff:      0.351D+00 0.469D+00
 Gap=     0.126 Goal=   None    Shift=    0.000
 RMSDP=8.11D-07 MaxDP=4.37D-05 DE=-2.51D-07 OVMax= 8.34D-05

 Cycle   9  Pass 1  IDiag  1:
 RMSU=  2.95D-07    CP:  9.99D-01  8.57D-01  4.45D-01  4.26D-01  6.38D-01
                    CP:  1.06D+00  6.22D-01  4.73D-01
 E= -7517.81655548480     Delta-E=       -0.000000081440 Rises=F Damp=F
 DIIS: error= 1.17D-06 at cycle   9 NSaved=   9.
 NSaved= 9 IEnMin= 9 EnMin= -7517.81655548480     IErMin= 9 ErrMin= 1.17D-06
 ErrMax= 1.17D-06  0.00D+00 EMaxC= 1.00D-01 BMatC= 2.81D-09 BMatP= 7.01D-08
 IDIUse=1 WtCom= 1.00D+00 WtEn= 0.00D+00
 Coeff-Com:  0.197D-04-0.927D-02-0.402D-02-0.790D-02-0.851D-02 0.722D-01
 Coeff-Com:  0.163D+00 0.272D+00 0.522D+00
 Coeff:      0.197D-04-0.927D-02-0.402D-02-0.790D-02-0.851D-02 0.722D-01
 Coeff:      0.163D+00 0.272D+00 0.522D+00
 Gap=     0.126 Goal=   None    Shift=    0.000
 RMSDP=1.77D-07 MaxDP=9.26D-06 DE=-8.14D-08 OVMax= 2.60D-05

 Cycle  10  Pass 1  IDiag  1:
 RMSU=  1.01D-07    CP:  9.99D-01  8.57D-01  4.45D-01  4.27D-01  6.44D-01
                    CP:  1.06D+00  6.23D-01  5.67D-01  8.09D-01
 E= -7517.81655548801     Delta-E=       -0.000000003209 Rises=F Damp=F
 DIIS: error= 2.61D-07 at cycle  10 NSaved=  10.
 NSaved=10 IEnMin=10 EnMin= -7517.81655548801     IErMin=10 ErrMin= 2.61D-07
 ErrMax= 2.61D-07  0.00D+00 EMaxC= 1.00D-01 BMatC= 1.47D-10 BMatP= 2.81D-09
 IDIUse=1 WtCom= 1.00D+00 WtEn= 0.00D+00
 Coeff-Com:  0.611D-05-0.202D-02-0.834D-03-0.190D-02-0.331D-02 0.613D-02
 Coeff-Com:  0.283D-01 0.544D-01 0.212D+00 0.707D+00
 Coeff:      0.611D-05-0.202D-02-0.834D-03-0.190D-02-0.331D-02 0.613D-02
 Coeff:      0.283D-01 0.544D-01 0.212D+00 0.707D+00
 Gap=     0.126 Goal=   None    Shift=    0.000
 RMSDP=7.20D-08 MaxDP=2.49D-06 DE=-3.21D-09 OVMax= 1.03D-05

 Cycle  11  Pass 1  IDiag  1:
 RMSU=  5.86D-08    CP:  9.99D-01  8.57D-01  4.45D-01  4.27D-01  6.45D-01
                    CP:  1.07D+00  6.32D-01  5.69D-01  8.90D-01  8.97D-01
 E= -7517.81655548790     Delta-E=        0.000000000109 Rises=F Damp=F
 DIIS: error= 4.04D-07 at cycle  11 NSaved=  11.
 NSaved=11 IEnMin=10 EnMin= -7517.81655548801     IErMin=10 ErrMin= 2.61D-07
 ErrMax= 4.04D-07  0.00D+00 EMaxC= 1.00D-01 BMatC= 1.89D-10 BMatP= 1.47D-10
 IDIUse=1 WtCom= 1.00D+00 WtEn= 0.00D+00
 Coeff-Com:  0.991D-06 0.190D-03 0.121D-03 0.287D-04-0.111D-02-0.905D-02
 Coeff-Com: -0.963D-02-0.941D-02 0.741D-01 0.599D+00 0.356D+00
 Coeff:      0.991D-06 0.190D-03 0.121D-03 0.287D-04-0.111D-02-0.905D-02
 Coeff:     -0.963D-02-0.941D-02 0.741D-01 0.599D+00 0.356D+00
 Gap=     0.126 Goal=   None    Shift=    0.000
 RMSDP=4.74D-08 MaxDP=1.61D-06 DE= 1.09D-10 OVMax= 5.58D-06

 Cycle  12  Pass 1  IDiag  1:
 RMSU=  2.14D-08    CP:  9.99D-01  8.57D-01  4.45D-01  4.27D-01  6.45D-01
                    CP:  1.07D+00  6.33D-01  5.70D-01  9.11D-01  1.08D+00
                    CP:  3.94D-01
 E= -7517.81655548791     Delta-E=       -0.000000000009 Rises=F Damp=F
 DIIS: error= 8.71D-08 at cycle  12 NSaved=  12.
 NSaved=12 IEnMin=10 EnMin= -7517.81655548801     IErMin=12 ErrMin= 8.71D-08
 ErrMax= 8.71D-08  0.00D+00 EMaxC= 1.00D-01 BMatC= 1.75D-11 BMatP= 1.47D-10
 IDIUse=1 WtCom= 1.00D+00 WtEn= 0.00D+00
 Coeff-Com: -0.515D-06 0.523D-03 0.244D-03 0.397D-03-0.138D-03-0.715D-02
 Coeff-Com: -0.127D-01-0.166D-01 0.104D-01 0.283D+00 0.260D+00 0.482D+00
 Coeff:     -0.515D-06 0.523D-03 0.244D-03 0.397D-03-0.138D-03-0.715D-02
 Coeff:     -0.127D-01-0.166D-01 0.104D-01 0.283D+00 0.260D+00 0.482D+00
 Gap=     0.126 Goal=   None    Shift=    0.000
 RMSDP=1.41D-08 MaxDP=9.12D-07 DE=-9.09D-12 OVMax= 1.81D-06

 Cycle  13  Pass 1  IDiag  1:
 RMSU=  6.87D-09    CP:  9.99D-01  8.57D-01  4.45D-01  4.27D-01  6.45D-01
                    CP:  1.07D+00  6.32D-01  5.71D-01  9.23D-01  1.10D+00
                    CP:  5.12D-01  6.84D-01
 E= -7517.81655548770     Delta-E=        0.000000000207 Rises=F Damp=F
 DIIS: error= 2.40D-08 at cycle  13 NSaved=  13.
 NSaved=13 IEnMin=10 EnMin= -7517.81655548801     IErMin=13 ErrMin= 2.40D-08
 ErrMax= 2.40D-08  0.00D+00 EMaxC= 1.00D-01 BMatC= 1.13D-12 BMatP= 1.75D-11
 IDIUse=1 WtCom= 1.00D+00 WtEn= 0.00D+00
 Coeff-Com: -0.426D-06 0.273D-03 0.122D-03 0.222D-03 0.101D-03-0.278D-02
 Coeff-Com: -0.597D-02-0.814D-02-0.701D-02 0.764D-01 0.997D-01 0.264D+00
 Coeff-Com:  0.583D+00
 Coeff:     -0.426D-06 0.273D-03 0.122D-03 0.222D-03 0.101D-03-0.278D-02
 Coeff:     -0.597D-02-0.814D-02-0.701D-02 0.764D-01 0.997D-01 0.264D+00
 Coeff:      0.583D+00
 Gap=     0.126 Goal=   None    Shift=    0.000
 RMSDP=4.14D-09 MaxDP=2.88D-07 DE= 2.07D-10 OVMax= 5.95D-07

 SCF Done:  E(RPBE1PBE) =  -7517.81655549     A.U. after   13 cycles
            NFock= 13  Conv=0.41D-08     -V/T= 2.1284
 KE= 6.662139418692D+03 PE=-2.476817025342D+04 EE= 6.999785046781D+03
 Leave Link  502 at Thu Mar  8 05:44:30 2018, MaxMem=   536870912 cpu:      2732.8
 (Enter /share/apps//mg09/l701.exe)
 Compute integral first derivatives.
 ... and contract with generalized density number  0.
   1 Symmetry operations used in ECPInt.
 ECPInt:  NShTT=   10440 NPrTT=   41973 LenC2=    9679 LenP2D=   27661.
 LDataN:  DoStor=T MaxTD1= 9 Len=  602
 Leave Link  701 at Thu Mar  8 05:44:58 2018, MaxMem=   536870912 cpu:        93.5
 (Enter /share/apps//mg09/l702.exe)
 L702 exits ... SP integral derivatives will be done elsewhere.
 Leave Link  702 at Thu Mar  8 05:44:58 2018, MaxMem=   536870912 cpu:         0.1
 (Enter /share/apps//mg09/l703.exe)
 Compute integral first derivatives, UseDBF=F ICtDFT=           0.
 Integral derivatives from FoFJK, PRISM(SPDF).
 Calling FoFJK, ICntrl=      2127 FMM=F ISym2X=0 I1Cent= 0 IOpClX= 0 NMat=1 NMatS=1 NMatT=0.
 FoFJK:  IHMeth= 1 ICntrl=    2127 DoSepK=F KAlg= 0 I1Cent=   0 FoldK=F
 IRaf=         0 NMat=   1 IRICut=       1 DoRegI=T DoRafI=F ISym2E= 0.
 FoFCou: FMM=F IPFlag=           0 FMFlag=      100000 FMFlg1=         800
         NFxFlg=           0 DoJE=F BraDBF=F KetDBF=F FulRan=T
         wScrn=  0.000000 ICntrl=    2127 IOpCl=  0 I1Cent=           0 NGrid=           0
         NMat0=    1 NMatS0=      1 NMatT0=    0 NMatD0=    1 NMtDS0=    0 NMtDT0=    0
 Symmetry not used in FoFCou.
 Defaulting to unpruned grid for atomic number  83.
 Defaulting to unpruned grid for atomic number  83.
 Defaulting to unpruned grid for atomic number  83.
 Defaulting to unpruned grid for atomic number  83.
 Leave Link  703 at Thu Mar  8 05:48:41 2018, MaxMem=   536870912 cpu:       851.1
 (Enter /share/apps//mg09/l716.exe)
 Dipole        = 1.95784803D-01 2.93320704D-01-9.00066470D-02
 ***** Axes restored to original set *****
 -------------------------------------------------------------------
 Center     Atomic                   Forces (Hartrees/Bohr)
 Number     Number              X              Y              Z
 -------------------------------------------------------------------
      1       32          -0.004103881    0.005826250   -0.004584208
      2       32          -0.001471526   -0.001783894    0.005824364
      3       32           0.000696780   -0.005840136   -0.004674844
      4       83           0.001914565   -0.001555541    0.000106653
      5       50           0.005528666    0.000670165   -0.002066965
      6       50           0.003158852    0.004831377    0.002989690
      7       83          -0.002332118   -0.001077471    0.002556709
      8       83          -0.000913475   -0.001464764   -0.000247026
      9       83          -0.002477864    0.000394014    0.000095626
 -------------------------------------------------------------------
 Cartesian Forces:  Max     0.005840136 RMS     0.003183548
 Leave Link  716 at Thu Mar  8 05:48:41 2018, MaxMem=   536870912 cpu:         0.1
 (Enter /share/apps//mg09/l103.exe)

 GradGradGradGradGradGradGradGradGradGradGradGradGradGradGradGradGradGrad
 Berny optimization.
 Search for a local minimum.
 Step number   2 out of a maximum of  100
 All quantities printed in internal units (Hartrees-Bohrs-Radians)
 Update second derivatives using D2CorN and points    1    2
 DE= -5.62D-03 DEPred=-4.13D-03 R= 1.36D+00
 TightC=F SS=  1.41D+00  RLast= 2.20D-01 DXNew= 5.0454D-01 6.6068D-01
 Trust test= 1.36D+00 RLast= 2.20D-01 DXMaxT set to 5.05D-01
 ITU=  1  0
     Eigenvalues ---    0.08044   0.09653   0.11428   0.12062   0.13068
     Eigenvalues ---    0.14120   0.14525   0.14564   0.16213   0.16735
     Eigenvalues ---    0.17786   0.22204   0.22661   0.23684   0.24725
     Eigenvalues ---    0.26454   0.27261   0.27745   0.28355   0.29335
     Eigenvalues ---    0.32375
 RFO step:  Lambda=-4.30513495D-04 EMin= 8.04382505D-02
 Quartic linear search produced a step of  0.61705.
 TrRot= -0.000379 -0.000129 -0.000283 -0.000005  0.000045 -0.000005
 MatCor failed.
 Variable       Old X    -DE/DX   Delta X   Delta X   Delta X     New X
                                 (Linear)    (Quad)   (Total)
    X1        0.94170  -0.00410  -0.02284  -0.00773  -0.03084   0.91086
    Y1       -3.31734   0.00583   0.03195   0.01001   0.04182  -3.27552
    Z1        3.18647  -0.00458  -0.02900  -0.00986  -0.03918   3.14729
    X2       -0.20117  -0.00147  -0.00601  -0.01043  -0.01703  -0.21820
    Y2        0.28670  -0.00178  -0.01035  -0.00727  -0.01775   0.26895
    Z2       -4.64079   0.00582   0.04418   0.00505   0.04896  -4.59183
    X3       -0.71013   0.00070   0.00093   0.00071   0.00146  -0.70867
    Y3        2.26685  -0.00584  -0.03330  -0.00908  -0.04251   2.22434
    Z3        3.87135  -0.00467  -0.03157  -0.00777  -0.03959   3.83176
    X4       -4.08412   0.00191   0.02962  -0.00846   0.02075  -4.06336
    Y4        1.69165  -0.00156  -0.01922   0.00325  -0.01606   1.67559
    Z4       -1.01655   0.00011   0.01017  -0.00381   0.00626  -1.01029
    X5       -4.13100   0.00553   0.04635   0.00653   0.05264  -4.07836
    Y5       -1.79840   0.00067   0.01363  -0.00470   0.00885  -1.78956
    Z5        3.47749  -0.00207  -0.03243   0.00369  -0.02884   3.44865
    X6       -2.53247   0.00316   0.02190   0.00257   0.02398  -2.50849
    Y6       -3.97246   0.00483   0.03969   0.00464   0.04423  -3.92823
    Z6       -1.62276   0.00299   0.02298   0.00395   0.02676  -1.59600
    X7        4.13911  -0.00233  -0.03476   0.01048  -0.02456   4.11455
    Y7        0.88140  -0.00108  -0.01132   0.00027  -0.01121   0.87018
    Z7        2.02330   0.00256  -0.00786   0.02687   0.01855   2.04184
    X8        0.92449  -0.00091  -0.00820   0.00429  -0.00430   0.92019
    Y8        4.30533  -0.00146  -0.03703   0.01154  -0.02563   4.27970
    Z8       -1.14565  -0.00025   0.00692  -0.00715  -0.00056  -1.14621
    X9        3.00676  -0.00248  -0.02698   0.00538  -0.02210   2.98466
    Y9       -3.13018   0.00039   0.02595  -0.00754   0.01825  -3.11193
    Z9       -1.88786   0.00010   0.01661  -0.00854   0.00765  -1.88021
         Item               Value     Threshold  Converged?
 Maximum Force            0.005840     0.000450     NO 
 RMS     Force            0.003184     0.000300     NO 
[...]
     X                                   X                     X                                                                     
     X                                   X                                                                                           
     X                                   X                                                                                           
     X                                                                                                                               
     X                                                                                                                               
     X                                                                                                                               
     X                                                                                                                               
     X                                                                                                                               
     X                                                                                                                               
     X                                                                                                                               
     X                                                                                                                               
     X                                                                                                                               
     X                                                                                                                               
     X                                                                                                                               
     X                                                                                                                               
 
 ***** Axes restored to original set *****
 -------------------------------------------------------------------
 Center     Atomic                   Forces (Hartrees/Bohr)
 Number     Number              X              Y              Z
 -------------------------------------------------------------------
      1       32           0.000017488    0.000080044    0.000056932
      2       32          -0.000003471   -0.000019040    0.000072521
      3       32           0.000078150   -0.000054720    0.000037862
      4       83          -0.000018766   -0.000005530   -0.000071399
      5       50           0.000041949    0.000009068    0.000010658
      6       50          -0.000074486   -0.000001795   -0.000033629
      7       83          -0.000010315   -0.000018867   -0.000010942
      8       83          -0.000010503    0.000076649   -0.000027338
      9       83          -0.000020047   -0.000065809   -0.000034664
 -------------------------------------------------------------------
 Cartesian Forces:  Max     0.000080044 RMS     0.000044510
 Force constants in Cartesian coordinates: 
                1             2             3             4             5 
      1  0.695864D-01
      2  0.330241D-02  0.449024D-01
      3 -0.850396D-02 -0.142157D-01  0.512376D-01
      4 -0.139320D-02 -0.281437D-02 -0.357479D-02  0.404784D-01
      5 -0.118779D-02 -0.172056D-02  0.675317D-02 -0.934490D-02  0.529362D-01
      6 -0.148145D-03 -0.901839D-03 -0.431252D-02 -0.328681D-02  0.913347D-03
      7  0.725401D-03  0.299769D-02  0.172933D-02 -0.257954D-02  0.648424D-03
      8  0.167983D-02 -0.744666D-02 -0.210889D-02  0.186742D-02  0.215406D-02
      9  0.345439D-03  0.171767D-02 -0.485810D-02  0.152074D-02 -0.688084D-02
     10 -0.182829D-02 -0.130946D-02 -0.172652D-02 -0.164110D-01  0.984824D-02
     11  0.369413D-02 -0.694210D-02  0.541999D-03  0.960236D-02 -0.451055D-02
     12 -0.595079D-02  0.183057D-02 -0.385253D-02  0.153057D-01 -0.307165D-02
     13 -0.379660D-01  0.747518D-02  0.622791D-02  0.420686D-03 -0.473611D-03
     14  0.112904D-01 -0.123014D-02 -0.436298D-03 -0.728195D-03 -0.121934D-02
     15  0.222006D-02 -0.463153D-03 -0.122740D-02  0.350735D-02  0.317593D-03
     16 -0.400185D-02 -0.339144D-02 -0.659846D-02  0.386382D-03 -0.691791D-02
     17 -0.158877D-02 -0.213639D-02  0.199095D-02 -0.655127D-02 -0.101120D-01
     18 -0.675736D-02 -0.150612D-02 -0.808833D-02  0.442516D-02  0.626749D-02
     19 -0.184906D-01 -0.172131D-01  0.117104D-02 -0.484018D-03  0.477326D-03
     20 -0.191084D-01 -0.200975D-01  0.608323D-02  0.804081D-03 -0.101774D-02
     21  0.299672D-02  0.466403D-02  0.102165D-02 -0.683048D-02 -0.181419D-02
     22  0.113700D-02  0.712217D-02  0.306656D-03 -0.354242D-02 -0.844818D-02
     23 -0.861314D-04 -0.496396D-02 -0.518933D-04 -0.608316D-02 -0.223320D-01
     24  0.293319D-02  0.734791D-02 -0.333149D-02 -0.298112D-02 -0.150457D-01
     25 -0.776886D-02  0.383088D-02  0.109688D-01 -0.168754D-01  0.153984D-01
     26  0.200428D-02 -0.365070D-03  0.144340D-02  0.132480D-01 -0.141780D-01
     27  0.128648D-01  0.152660D-02 -0.265889D-01 -0.808580D-02  0.125608D-01
                6             7             8             9            10 
      6  0.715663D-01
      7 -0.106706D-02  0.612522D-01
      8  0.178336D-02  0.995418D-02  0.430362D-01
      9 -0.608544D-02 -0.130143D-01  0.111197D-01  0.495442D-01
     10  0.123035D-01 -0.692050D-02  0.160975D-02 -0.551335D-02  0.833459D-01
     11 -0.355037D-02  0.432292D-03  0.179409D-02 -0.424799D-02 -0.270171D-02
     12 -0.163191D-01 -0.374978D-02 -0.143997D-02 -0.897491D-02 -0.406386D-02
     13 -0.995017D-03 -0.173221D-01 -0.175561D-01  0.514368D-03 -0.369617D-02
     14 -0.225030D-03 -0.202626D-01 -0.209514D-01 -0.113905D-02  0.569828D-03
     15 -0.309995D-02 -0.206513D-02 -0.212564D-02 -0.102364D-02  0.768262D-03
     16  0.246039D-02 -0.241245D-02  0.310446D-02 -0.591652D-03 -0.500217D-02
     17  0.547599D-02 -0.671956D-03 -0.504584D-02 -0.668553D-03  0.553720D-02
     18 -0.801858D-02 -0.421829D-02 -0.354145D-02 -0.337355D-02  0.894986D-03
     19  0.114955D-02 -0.360239D-01  0.628474D-02  0.102500D-01 -0.482665D-02
     20  0.904638D-04  0.656594D-02 -0.222802D-02 -0.574085D-02  0.647825D-02
     21 -0.470728D-02  0.108484D-01 -0.342010D-02 -0.377315D-02 -0.161837D-02
     22 -0.376691D-02 -0.519363D-04 -0.566970D-02  0.670273D-02 -0.397854D-01
     23 -0.129539D-01 -0.431753D-02 -0.631515D-02  0.592381D-02 -0.196790D-01
     24 -0.165405D-01  0.432593D-02  0.425221D-02 -0.166652D-01  0.385053D-03
     25 -0.664954D-02  0.333280D-02 -0.127457D-02 -0.213937D-03 -0.487571D-02
     26  0.936799D-02  0.465355D-02 -0.499734D-02 -0.839297D-04 -0.353136D-03
     27 -0.124829D-01  0.721094D-02 -0.451926D-02 -0.479023D-02 -0.142974D-02
               11            12            13            14            15 
     11  0.587363D-01
     12 -0.130363D-01  0.488677D-01
     13  0.107078D-02 -0.191779D-03  0.692989D-01
     14 -0.136664D-01  0.182354D-01  0.874269D-02  0.460657D-01
     15  0.185162D-01 -0.223079D-01 -0.160795D-01 -0.838666D-02  0.553059D-01
     16  0.667603D-02  0.174531D-02 -0.357085D-02  0.266585D-02  0.972790D-02
     17 -0.238787D-01 -0.388334D-02  0.148320D-02 -0.363759D-02 -0.926223D-02
     18 -0.198767D-02  0.184060D-02  0.760253D-02 -0.102867D-01 -0.228234D-01
     19 -0.102982D-02 -0.190729D-02 -0.343214D-02  0.503600D-03 -0.709755D-03
     20  0.252389D-02  0.131412D-02 -0.216679D-03 -0.359753D-02  0.558825D-03
     21 -0.334113D-02 -0.109456D-02  0.202935D-02  0.102577D-02 -0.208276D-02
     22 -0.203674D-01 -0.177581D-02 -0.673192D-03 -0.428583D-02  0.211165D-02
     23 -0.117323D-01  0.294981D-02  0.610566D-03 -0.128145D-02 -0.212109D-03
     24  0.609800D-02  0.305016D-03  0.100305D-02  0.174539D-02 -0.433178D-03
     25  0.262331D-02  0.588248D-03 -0.305925D-02  0.150421D-02  0.519222D-03
     26 -0.232415D-02 -0.289865D-02 -0.113601D-02 -0.481808D-03  0.105720D-02
     27  0.100724D-02  0.153568D-02 -0.110856D-03 -0.532822D-03 -0.230768D-02
               16            17            18            19            20 
     16  0.613178D-01
     17  0.107331D-01  0.530258D-01
     18 -0.647775D-02  0.126118D-01  0.423629D-01
     19 -0.314456D-03 -0.965836D-03 -0.447596D-03  0.891109D-01
     20 -0.760475D-02 -0.322627D-02 -0.161627D-02  0.517609D-02  0.655969D-01
     21 -0.441663D-02  0.179306D-02 -0.236418D-02  0.116686D-01  0.299666D-02
     22 -0.342145D-02 -0.345227D-02 -0.538031D-04 -0.190195D-01  0.127830D-01
     23  0.563780D-03 -0.422575D-02  0.783483D-03  0.140860D-01 -0.183466D-01
     24 -0.172177D-03 -0.444379D-02  0.751840D-03 -0.153125D-01  0.174829D-01
     25 -0.429809D-01 -0.452344D-02  0.503212D-02 -0.651964D-02 -0.487751D-02
     26 -0.582918D-02 -0.763338D-03 -0.724642D-03 -0.731900D-02 -0.196070D-01
     27  0.432307D-02 -0.361392D-02 -0.287223D-03 -0.586199D-02 -0.211691D-01
               21            22            23            24            25 
     21  0.441720D-01
     22 -0.128503D-01  0.656108D-01
     23  0.172993D-01  0.169624D-01  0.760768D-01
     24 -0.131483D-01  0.109981D-01 -0.144208D-01  0.500736D-01
     25 -0.182724D-02 -0.253986D-03 -0.205692D-02 -0.117955D-02  0.790009D-01
     26 -0.192034D-01  0.535584D-02 -0.687944D-02 -0.301607D-02 -0.106244D-01
     27 -0.180234D-01 -0.167234D-02  0.682389D-03 -0.101174D-02 -0.723812D-02
               26            27 
     26  0.495962D-01
     27  0.140581D-01  0.639564D-01
 Leave Link  716 at Thu Mar  8 08:58:03 2018, MaxMem=   536870912 cpu:         0.1
 (Enter /share/apps//mg09/l103.exe)

 GradGradGradGradGradGradGradGradGradGradGradGradGradGradGradGradGradGrad
 Berny optimization.
 Search for a local minimum.
 Step number   1 out of a maximum of    2
 All quantities printed in internal units (Hartrees-Bohrs-Radians)
 Second derivative matrix not updated -- analytic derivatives used.
 ITU=  0
     Eigenvalues ---    0.01198   0.01849   0.02352   0.03968   0.04224
     Eigenvalues ---    0.04512   0.04925   0.05586   0.05980   0.06215
     Eigenvalues ---    0.06758   0.07418   0.08222   0.08541   0.09276
     Eigenvalues ---    0.09968   0.11814   0.12101   0.13641   0.14682
     Eigenvalues ---    0.15078
 Angle between quadratic step and forces=  43.84 degrees.
 Linear search not attempted -- first point.
 TrRot=  0.000128  0.000015  0.000136 -0.000001 -0.000009 -0.000001
 Variable       Old X    -DE/DX   Delta X   Delta X   Delta X     New X
                                 (Linear)    (Quad)   (Total)
    X1        0.88346   0.00002   0.00000   0.00021   0.00030   0.88376
    Y1       -3.22302   0.00008   0.00000   0.00341   0.00342  -3.21960
    Z1        3.10989   0.00006   0.00000   0.00245   0.00259   3.11249
    X2       -0.24435   0.00000   0.00000   0.00316   0.00333  -0.24102
    Y2        0.25105  -0.00002   0.00000   0.00070   0.00071   0.25176
    Z2       -4.57359   0.00007   0.00000   0.00189   0.00203  -4.57157
    X3       -0.70143   0.00008   0.00000   0.00263   0.00273  -0.69870
    Y3        2.16910  -0.00005   0.00000  -0.00330  -0.00329   2.16581
    Z3        3.80066   0.00004   0.00000   0.00205   0.00218   3.80284
    X4       -4.07668  -0.00002   0.00000  -0.00075  -0.00061  -4.07729
    Y4        1.70901  -0.00001   0.00000  -0.00109  -0.00106   1.70795
    Z4       -1.00174  -0.00007   0.00000  -0.00281  -0.00271  -1.00445
    X5       -4.10755   0.00004   0.00000  -0.00044  -0.00034  -4.10789
    Y5       -1.80586   0.00001   0.00000   0.00003   0.00005  -1.80581
    Z5        3.46428   0.00001   0.00000  -0.00112  -0.00102   3.46326
    X6       -2.47909  -0.00007   0.00000  -0.00185  -0.00171  -2.48080
    Y6       -3.92421   0.00000   0.00000   0.00017   0.00019  -3.92401
    Z6       -1.57135  -0.00003   0.00000  -0.00141  -0.00130  -1.57265
    X7        4.13622  -0.00001   0.00000   0.00051   0.00063   4.13684
    Y7        0.87510  -0.00002   0.00000   0.00066   0.00067   0.87578
    Z7        2.08068  -0.00001   0.00000  -0.00429  -0.00412   2.07656
    X8        0.93578  -0.00001   0.00000  -0.00331  -0.00316   0.93262
    Y8        4.27221   0.00008   0.00000   0.00326   0.00327   4.27548
    Z8       -1.16598  -0.00003   0.00000   0.00150   0.00164  -1.16434
    X9        3.00681  -0.00002   0.00000  -0.00130  -0.00116   3.00565
    Y9       -3.10986  -0.00007   0.00000  -0.00398  -0.00397  -3.11383
    Z9       -1.89786  -0.00003   0.00000   0.00055   0.00072  -1.89715
         Item               Value     Threshold  Converged?
 Maximum Force            0.000080     0.000450     YES
 RMS     Force            0.000045     0.000300     YES
 Maximum Displacement     0.004119     0.001800     NO 
 RMS     Displacement     0.002200     0.001200     NO 
 Predicted change in Energy=-9.506472D-07
 GradGradGradGradGradGradGradGradGradGradGradGradGradGradGradGradGradGrad

 Leave Link  103 at Thu Mar  8 08:58:03 2018, MaxMem=   536870912 cpu:         0.0
 (Enter /share/apps//mg09/l9999.exe)
 1\1\GINC-COMPUTE-0-6\Freq\RPBE1PBE\def2TZVP\Bi4Ge3Sn2\RODRIGO\08-Mar-2
 018\0\\#P Geom=AllCheck Guess=TCheck SCRF=Check GenChk RPBE1PBE/def2TZ
 VP Freq\\01Final_coords.xyz_27\\0,1\Ge,0.4675074401,-1.7055473084,1.64
 56851827\Ge,-0.1293037104,0.1328520232,-2.42024166\Ge,-0.3711813667,1.
 1478380141,2.0112251435\Bi,-2.1572847185,0.9043713554,-0.5300963853\Sn
 ,-2.1736205163,-0.9556203279,1.8332191788\Sn,-1.3118780425,-2.07660017
 24,-0.8315224488\Bi,2.1887927707,0.463084531,1.1010477054\Bi,0.4951921
 12,2.2607582339,-0.6170119742\Bi,1.5911360317,-1.645669349,-1.00430574
 21\\Version=ES64L-G09RevD.01\State=1-A\HF=-7517.8183226\RMSD=6.663e-09
 \RMSF=4.451e-05\ZeroPoint=0.0058297\Thermal=0.0232862\Dipole=0.2090448
 ,0.3188927,-0.0797826\DipoleDeriv=-0.139835,-0.0579623,0.0582848,-0.06
 15713,-0.0392877,-0.0178054,0.0623989,0.0284916,-0.0291857,-0.0974026,
 0.0031504,0.0801709,0.0106146,-0.1433069,-0.0139824,-0.0068329,-0.0462
 687,0.0890907,-0.0574966,-0.041453,0.0089301,0.0026314,-0.0198744,0.02
 35902,0.075324,0.0028078,-0.0072529,0.039358,-0.0846711,0.0977742,-0.0
 547654,-0.0083634,0.0143311,0.0246269,0.0186288,-0.0294953,0.2383403,0
 .1107643,-0.2950338,0.097726,-0.0229458,-0.1133963,-0.2133207,-0.10356
 1,0.1510868,0.0621416,0.1077447,0.1155823,0.0742236,0.2390562,0.093233
 3,0.060598,0.0872803,0.020362,0.0325916,0.0512839,0.0629915,-0.0257684
 ,-0.0635772,-0.0133372,0.0451581,0.0031575,0.0566998,-0.0447008,-0.062
 1686,-0.0389858,0.0136586,0.0294587,-0.0439059,-0.034394,0.0156662,-0.
 1051636,-0.0329964,-0.0266883,-0.0897144,-0.0567491,0.0288405,0.071272
 7,-0.0135582,-0.0062025,-0.1461419\Polar=388.1212793,10.8870011,376.62
 78773,-8.5903901,-0.4959208,367.0782571\PG=C01 [X(Bi4Ge3Sn2)]\NImag=0\
 \0.06958639,0.00330241,0.04490241,-0.00850396,-0.01421568,0.05123762,-
 0.00139320,-0.00281437,-0.00357479,0.04047844,-0.00118779,-0.00172056,
 0.00675317,-0.00934490,0.05293620,-0.00014814,-0.00090184,-0.00431252,
 -0.00328681,0.00091335,0.07156625,0.00072540,0.00299769,0.00172933,-0.
 00257954,0.00064842,-0.00106706,0.06125220,0.00167983,-0.00744666,-0.0
 0210889,0.00186742,0.00215406,0.00178336,0.00995418,0.04303623,0.00034
 544,0.00171767,-0.00485810,0.00152074,-0.00688084,-0.00608544,-0.01301
 430,0.01111973,0.04954424,-0.00182829,-0.00130946,-0.00172652,-0.01641
 099,0.00984824,0.01230354,-0.00692050,0.00160975,-0.00551335,0.0833458
 8,0.00369413,-0.00694210,0.00054200,0.00960236,-0.00451055,-0.00355037
 ,0.00043229,0.00179409,-0.00424799,-0.00270171,0.05873626,-0.00595079,
 0.00183057,-0.00385253,0.01530574,-0.00307165,-0.01631912,-0.00374978,
 -0.00143997,-0.00897491,-0.00406386,-0.01303626,0.04886771,-0.03796596
 ,0.00747518,0.00622791,0.00042069,-0.00047361,-0.00099502,-0.01732206,
 -0.01755611,0.00051437,-0.00369617,0.00107078,-0.00019178,0.06929895,0
 .01129044,-0.00123014,-0.00043630,-0.00072819,-0.00121934,-0.00022503,
 -0.02026259,-0.02095138,-0.00113905,0.00056983,-0.01366644,0.01823536,
 0.00874269,0.04606567,0.00222006,-0.00046315,-0.00122740,0.00350735,0.
 00031759,-0.00309995,-0.00206513,-0.00212564,-0.00102364,0.00076826,0.
 01851618,-0.02230789,-0.01607955,-0.00838666,0.05530594,-0.00400185,-0
 .00339144,-0.00659846,0.00038638,-0.00691791,0.00246039,-0.00241245,0.
 00310446,-0.00059165,-0.00500217,0.00667603,0.00174531,-0.00357085,0.0
 0266585,0.00972790,0.06131776,-0.00158877,-0.00213639,0.00199095,-0.00
 655127,-0.01011200,0.00547599,-0.00067196,-0.00504584,-0.00066855,0.00
 553720,-0.02387866,-0.00388334,0.00148320,-0.00363759,-0.00926223,0.01
 073315,0.05302583,-0.00675736,-0.00150612,-0.00808833,0.00442516,0.006
 26749,-0.00801858,-0.00421829,-0.00354145,-0.00337355,0.00089499,-0.00
 198767,0.00184060,0.00760253,-0.01028665,-0.02282344,-0.00647775,0.012
 61183,0.04236286,-0.01849063,-0.01721305,0.00117104,-0.00048402,0.0004
 7733,0.00114955,-0.03602390,0.00628474,0.01024996,-0.00482665,-0.00102
 982,-0.00190729,-0.00343214,0.00050360,-0.00070975,-0.00031446,-0.0009
 6584,-0.00044760,0.08911089,-0.01910839,-0.02009754,0.00608323,0.00080
 408,-0.00101774,0.00009046,0.00656594,-0.00222802,-0.00574085,0.006478
 25,0.00252389,0.00131412,-0.00021668,-0.00359753,0.00055882,-0.0076047
 5,-0.00322627,-0.00161627,0.00517609,0.06559686,0.00299672,0.00466403,
 0.00102165,-0.00683048,-0.00181419,-0.00470728,0.01084836,-0.00342010,
 -0.00377315,-0.00161837,-0.00334113,-0.00109456,0.00202935,0.00102577,
 -0.00208276,-0.00441663,0.00179306,-0.00236418,0.01166860,0.00299666,0
 .04417199,0.00113700,0.00712217,0.00030666,-0.00354242,-0.00844818,-0.
 00376691,-0.00005194,-0.00566970,0.00670273,-0.03978540,-0.02036737,-0
 .00177581,-0.00067319,-0.00428583,0.00211165,-0.00342145,-0.00345227,-
 0.00005380,-0.01901946,0.01278295,-0.01285031,0.06561084,-0.00008613,-
 0.00496396,-0.00005189,-0.00608316,-0.02233203,-0.01295392,-0.00431753
 ,-0.00631515,0.00592381,-0.01967895,-0.01173235,0.00294981,0.00061057,
 -0.00128145,-0.00021211,0.00056378,-0.00422575,0.00078348,0.01408595,-
 0.01834665,0.01729926,0.01696240,0.07607678,0.00293319,0.00734791,-0.0
 0333149,-0.00298112,-0.01504575,-0.01654045,0.00432593,0.00425221,-0.0
 1666523,0.00038505,0.00609800,0.00030502,0.00100305,0.00174539,-0.0004
 3318,-0.00017218,-0.00444379,0.00075184,-0.01531250,0.01748294,-0.0131
 4833,0.01099814,-0.01442084,0.05007356,-0.00776886,0.00383088,0.010968
 80,-0.01687536,0.01539840,-0.00664954,0.00333280,-0.00127457,-0.000213
 94,-0.00487571,0.00262331,0.00058825,-0.00305925,0.00150421,0.00051922
 ,-0.04298090,-0.00452344,0.00503212,-0.00651964,-0.00487751,-0.0018272
 4,-0.00025399,-0.00205692,-0.00117955,0.07900091,0.00200428,-0.0003650
 7,0.00144340,0.01324803,-0.01417804,0.00936799,0.00465355,-0.00499734,
 -0.00008393,-0.00035314,-0.00232415,-0.00289865,-0.00113601,-0.0004818
 1,0.00105720,-0.00582918,-0.00076334,-0.00072464,-0.00731900,-0.019606
 99,-0.01920336,0.00535584,-0.00687944,-0.00301607,-0.01062437,0.049596
 18,0.01286484,0.00152660,-0.02658892,-0.00808580,0.01256083,-0.0124829
 2,0.00721094,-0.00451926,-0.00479023,-0.00142974,0.00100724,0.00153568
 ,-0.00011086,-0.00053282,-0.00230768,0.00432307,-0.00361392,-0.0002872
 2,-0.00586199,-0.02116913,-0.01802339,-0.00167234,0.00068239,-0.001011
 74,-0.00723812,0.01405806,0.06395643\\-0.00001749,-0.00008004,-0.00005
 693,0.00000347,0.00001904,-0.00007252,-0.00007815,0.00005472,-0.000037
 86,0.00001877,0.00000553,0.00007140,-0.00004195,-0.00000907,-0.0000106
 6,0.00007449,0.00000179,0.00003363,0.00001031,0.00001887,0.00001094,0.
 00001050,-0.00007665,0.00002734,0.00002005,0.00006581,0.00003466\\\@


 TELEVISION IS CALLED A MEDIUM BECAUSE IT ISN'T
 RARE, AND IT ISN'T WELL DONE.
 Job cpu time:       0 days  4 hours 21 minutes 29.0 seconds.
 File lengths (MBytes):  RWF=    299 Int=      0 D2E=      0 Chk=     16 Scr=      1
 Normal termination of Gaussian 09 at Thu Mar  8 08:58:05 2018.
