 Entering Gaussian System, Link 0=/share/apps/mg09/g09
 Initial command:
 /share/apps//mg09/l1.exe "/state/partition1/gauss_tmp/Gau-19865.inp" -scrdir="/state/partition1/gauss_tmp/"
 Entering Link 1 = /share/apps//mg09/l1.exe PID=     19867.
  
 Copyright (c) 1988,1990,1992,1993,1995,1998,2003,2009,2013,
            Gaussian, Inc.  All Rights Reserved.
  
 This is part of the Gaussian(R) 09 program.  It is based on
 the Gaussian(R) 03 system (copyright 2003, Gaussian, Inc.),
 the Gaussian(R) 98 system (copyright 1998, Gaussian, Inc.),
 the Gaussian(R) 94 system (copyright 1995, Gaussian, Inc.),
 the Gaussian 92(TM) system (copyright 1992, Gaussian, Inc.),
 the Gaussian 90(TM) system (copyright 1990, Gaussian, Inc.),
 the Gaussian 88(TM) system (copyright 1988, Gaussian, Inc.),
 the Gaussian 86(TM) system (copyright 1986, Carnegie Mellon
 University), and the Gaussian 82(TM) system (copyright 1983,
 Carnegie Mellon University). Gaussian is a federally registered
 trademark of Gaussian, Inc.
  
 This software contains proprietary and confidential information,
 including trade secrets, belonging to Gaussian, Inc.
  
 This software is provided under written license and may be
 used, copied, transmitted, or stored only in accord with that
 written license.
  
 The following legend is applicable only to US Government
 contracts under FAR:
  
                    RESTRICTED RIGHTS LEGEND
  
 Use, reproduction and disclosure by the US Government is
 subject to restrictions as set forth in subparagraphs (a)
 and (c) of the Commercial Computer Software - Restricted
 Rights clause in FAR 52.227-19.
  
 Gaussian, Inc.
 340 Quinnipiac St., Bldg. 40, Wallingford CT 06492
  
  
 ---------------------------------------------------------------
 Warning -- This program may not be used in any manner that
 competes with the business of Gaussian, Inc. or will provide
 assistance to any competitor of Gaussian, Inc.  The licensee
 of this program is prohibited from giving any competitor of
 Gaussian, Inc. access to this program.  By using this program,
 the user acknowledges that Gaussian, Inc. is engaged in the
 business of creating and licensing software in the field of
 computational chemistry and represents and warrants to the
 licensee that it is not a competitor of Gaussian, Inc. and that
 it will not use this program in any manner prohibited above.
 ---------------------------------------------------------------
  

 Cite this work as:
 Gaussian 09, Revision D.01,
 M. J. Frisch, G. W. Trucks, H. B. Schlegel, G. E. Scuseria, 
 M. A. Robb, J. R. Cheeseman, G. Scalmani, V. Barone, B. Mennucci, 
 G. A. Petersson, H. Nakatsuji, M. Caricato, X. Li, H. P. Hratchian, 
 A. F. Izmaylov, J. Bloino, G. Zheng, J. L. Sonnenberg, M. Hada, 
 M. Ehara, K. Toyota, R. Fukuda, J. Hasegawa, M. Ishida, T. Nakajima, 
 Y. Honda, O. Kitao, H. Nakai, T. Vreven, J. A. Montgomery, Jr., 
 J. E. Peralta, F. Ogliaro, M. Bearpark, J. J. Heyd, E. Brothers, 
 K. N. Kudin, V. N. Staroverov, T. Keith, R. Kobayashi, J. Normand, 
 K. Raghavachari, A. Rendell, J. C. Burant, S. S. Iyengar, J. Tomasi, 
 M. Cossi, N. Rega, J. M. Millam, M. Klene, J. E. Knox, J. B. Cross, 
 V. Bakken, C. Adamo, J. Jaramillo, R. Gomperts, R. E. Stratmann, 
 O. Yazyev, A. J. Austin, R. Cammi, C. Pomelli, J. W. Ochterski, 
 R. L. Martin, K. Morokuma, V. G. Zakrzewski, G. A. Voth, 
 P. Salvador, J. J. Dannenberg, S. Dapprich, A. D. Daniels, 
 O. Farkas, J. B. Foresman, J. V. Ortiz, J. Cioslowski, 
 and D. J. Fox, Gaussian, Inc., Wallingford CT, 2013.
 
 ******************************************
 Gaussian 09:  ES64L-G09RevD.01 24-Apr-2013
                 8-Mar-2018 
 ******************************************
 %NProcShared=4
 Will use up to    4 processors via shared memory.
 %LindaWorkers=compute-0-6
 %chk=Isomer_43.chk
 %NProc=4
 Will use up to    4 processors via shared memory.
 %mem=4GB
 SetLPE:  input flags=" -vv -opt "Tsnet.Node.lindarsharg: ssh" "
 SetLPE:    new flags=" -vv -opt "Tsnet.Node.lindarsharg: ssh"  -nodelist 'compute-0-6.local'"
 Will use up to    1 processors via Linda.
 ----------------------------------------------------------------------
 #p PBE1PBE/Def2TZVP scf=(maxcycle=768) opt=(cartesian,maxcycle=512) fr
 eq
 ----------------------------------------------------------------------
 1/6=512,10=7,14=-1,18=10,26=3,38=1/1,3;
 2/12=2,17=6,18=5,29=2,40=1/2;
 3/5=44,7=101,11=2,16=1,25=1,30=1,71=1,74=-13/1,2,3;
 4//1;
 5/5=2,7=768,38=5/2;
 6/7=2,8=2,9=2,10=2,28=1/1;
 7/7=1,29=1/1,2,3,16;
 1/6=512,10=7,14=-1,18=10,26=3/3(2);
 2/29=1/2;
 99/12=1/99;
 2/29=1/2;
 3/5=44,7=101,11=2,16=1,25=1,30=1,71=1,74=-13/1,2,3;
 4/5=5,16=3,69=1/1;
 5/5=2,7=768,38=5/2;
 7/7=1/1,2,3,16;
 1/6=512,14=-1,18=10,26=3/3(-5);
 2/29=1/2;
 6/7=2,8=2,9=2,10=2,19=2,28=1/1;
 99/9=1,12=1/99;
 Leave Link    1 at Thu Mar  8 11:09:28 2018, MaxMem=   536870912 cpu:         0.7
 (Enter /share/apps//mg09/l101.exe)
 ---------------------
 01Final_coords.xyz_43
 ---------------------
 Symbolic Z-matrix:
 Charge =  0 Multiplicity = 1
 50                   -0.3691    2.63893   0.755 
 83                    1.82415  -1.66782  -0.01069 
 83                   -2.2929    0.58686  -0.66945 
 32                    1.03975   0.15274   2.2402 
 32                    0.00345   1.63562  -2.08372 
 83                   -1.07425  -1.93009   0.80341 
 50                   -0.31857  -1.28941  -2.20763 
 83                    2.19465   1.32166  -0.17032 
 32                   -1.65895   0.48485   2.23529 
 
 NAtoms=      9 NQM=        9 NQMF=       0 NMMI=      0 NMMIF=      0
                NMic=       0 NMicF=      0.
                    Isotopes and Nuclear Properties:
 (Nuclear quadrupole moments (NQMom) in fm**2, nuclear magnetic moments (NMagM)
  in nuclear magnetons)

  Atom         1           2           3           4           5           6           7           8           9
 IAtWgt=         118         209         209          74          74         209         118         209          74
 AtmWgt= 117.9018000 208.9804000 208.9804000  73.9211788  73.9211788 208.9804000 117.9018000 208.9804000  73.9211788
 NucSpn=           0           9           9           0           0           9           0           9           0
 AtZEff=   0.0000000   0.0000000   0.0000000   0.0000000   0.0000000   0.0000000   0.0000000   0.0000000   0.0000000
 NQMom=    0.0000000 -51.6000000 -51.6000000   0.0000000   0.0000000 -51.6000000   0.0000000 -51.6000000   0.0000000
 NMagM=    0.0000000   4.1106000   4.1106000   0.0000000   0.0000000   4.1106000   0.0000000   4.1106000   0.0000000
 AtZNuc=  50.0000000  83.0000000  83.0000000  32.0000000  32.0000000  83.0000000  50.0000000  83.0000000  32.0000000
 Leave Link  101 at Thu Mar  8 11:09:28 2018, MaxMem=   536870912 cpu:         0.2
 (Enter /share/apps//mg09/l103.exe)

 GradGradGradGradGradGradGradGradGradGradGradGradGradGradGradGradGradGrad
 Berny optimization.
 Initialization pass.
 No Z-matrix variables, so optimization will use Cartesian coordinates.
 Trust Radius=3.00D-01 FncErr=1.00D-07 GrdErr=1.00D-06
 Number of steps in this run=    100 maximum allowed number of steps=    100.
 GradGradGradGradGradGradGradGradGradGradGradGradGradGradGradGradGradGrad

 Leave Link  103 at Thu Mar  8 11:09:28 2018, MaxMem=   536870912 cpu:         0.0
 (Enter /share/apps//mg09/l202.exe)
 ---------------------------------------------------------------------------------------------------
                            Z-MATRIX (ANGSTROMS AND DEGREES)
   CD    Cent   Atom    N1       Length/X        N2       Alpha/Y        N3        Beta/Z          J
 ---------------------------------------------------------------------------------------------------
      1      1  Sn       0  -0.369100          2.638934          0.755004
      2      2  Bi       0   1.824151         -1.667821         -0.010693
      3      3  Bi       0  -2.292895          0.586857         -0.669454
      4      4  Ge       0   1.039751          0.152740          2.240199
      5      5  Ge       0   0.003447          1.635624         -2.083722
      6      6  Bi       0  -1.074252         -1.930085          0.803411
      7      7  Sn       0  -0.318565         -1.289411         -2.207628
      8      8  Bi       0   2.194648          1.321663         -0.170315
      9      9  Ge       0  -1.658945          0.484852          2.235287
 ---------------------------------------------------------------------------------------------------
                         Z-Matrix orientation:                         
 ---------------------------------------------------------------------
 Center     Atomic      Atomic             Coordinates (Angstroms)
 Number     Number       Type             X           Y           Z
 ---------------------------------------------------------------------
      1         50           0       -0.369100    2.638934    0.755004
      2         83           0        1.824151   -1.667821   -0.010693
      3         83           0       -2.292895    0.586857   -0.669454
      4         32           0        1.039751    0.152740    2.240199
      5         32           0        0.003447    1.635624   -2.083722
      6         83           0       -1.074252   -1.930085    0.803411
      7         50           0       -0.318565   -1.289411   -2.207628
      8         83           0        2.194648    1.321663   -0.170315
      9         32           0       -1.658945    0.484852    2.235287
 ---------------------------------------------------------------------
                    Distance matrix (angstroms):
                    1          2          3          4          5
     1  Sn   0.000000
     2  Bi   4.893340   0.000000
     3  Bi   3.152949   4.740001   0.000000
     4  Ge   3.220532   2.999373   4.445342   0.000000
     5  Ge   3.033774   4.304087   2.893657   4.687127   0.000000
     6  Bi   4.623366   3.021968   3.160604   3.297200   4.712882
     7  Sn   4.920532   3.092078   3.127993   4.869085   2.945314
     8  Bi   3.027247   3.016581   4.574617   2.917318   2.925929
     9  Ge   2.914620   4.670159   2.974864   2.719059   4.768822
                    6          7          8          9
     6  Bi   0.000000
     7  Sn   3.169839   0.000000
     8  Bi   4.712506   4.157474   0.000000
     9  Ge   2.867761   4.968312   4.619237   0.000000
 Stoichiometry    Bi4Ge3Sn2
 Framework group  C1[X(Bi4Ge3Sn2)]
 Deg. of freedom    21
 Full point group                 C1      NOp   1
 Largest Abelian subgroup         C1      NOp   1
 Largest concise Abelian subgroup C1      NOp   1
                         Standard orientation:                         
 ---------------------------------------------------------------------
 Center     Atomic      Atomic             Coordinates (Angstroms)
 Number     Number       Type             X           Y           Z
 ---------------------------------------------------------------------
      1         50           0        0.369102    2.638934   -0.755004
      2         83           0       -1.824152   -1.667820    0.010693
      3         83           0        2.292895    0.586856    0.669454
      4         32           0       -1.039751    0.152741   -2.240199
      5         32           0       -0.003446    1.635624    2.083722
      6         83           0        1.074251   -1.930086   -0.803411
      7         50           0        0.318564   -1.289411    2.207628
      8         83           0       -2.194647    1.321664    0.170315
      9         32           0        1.658945    0.484851   -2.235287
 ---------------------------------------------------------------------
 Rotational constants (GHZ):      0.1017330      0.0955265      0.0791636
 Leave Link  202 at Thu Mar  8 11:09:28 2018, MaxMem=   536870912 cpu:         0.1
 (Enter /share/apps//mg09/l301.exe)
 Standard basis: def2TZVP (5D, 7F)
 Ernie: Thresh=  0.10000D-02 Tol=  0.10000D-05 Strict=F.
 There are   519 symmetry adapted cartesian basis functions of A   symmetry.
 There are   444 symmetry adapted basis functions of A   symmetry.
   444 basis functions,   963 primitive gaussians,   519 cartesian basis functions
   116 alpha electrons      116 beta electrons
       nuclear repulsion energy      3529.9713512552 Hartrees.
 IExCor= 1009 DFT=T Ex+Corr=PBE1PBE ExCW=0 ScaHFX=  0.250000
 ScaDFX=  0.750000  0.750000  1.000000  1.000000 ScalE2=  1.000000  1.000000
 IRadAn=      0 IRanWt=     -1 IRanGd=            0 ICorTp=0 IEmpDi=  4
 NAtoms=    9 NActive=    9 NUniq=    9 SFac= 1.00D+00 NAtFMM=   60 NAOKFM=F Big=F
 Integral buffers will be    131072 words long.
 Raffenetti 2 integral format.
 Two-electron integral symmetry is turned on.
 Leave Link  301 at Thu Mar  8 11:09:28 2018, MaxMem=   536870912 cpu:         0.2
 (Enter /share/apps//mg09/l302.exe)
 NPDir=0 NMtPBC=     1 NCelOv=     1 NCel=       1 NClECP=     1 NCelD=      1
         NCelK=      1 NCelE2=     1 NClLst=     1 CellRange=     0.0.
 One-electron integrals computed using PRISM.
   1 Symmetry operations used in ECPInt.
 ECPInt:  NShTT=   10440 NPrTT=   41973 LenC2=    9664 LenP2D=   27481.
 LDataN:  DoStor=T MaxTD1= 8 Len=  415
 NBasis=   444 RedAO= T EigKep=  1.59D-03  NBF=   444
 NBsUse=   444 1.00D-06 EigRej= -1.00D+00 NBFU=   444
 Precomputing XC quadrature grid using
 IXCGrd= 4 IRadAn=           0 IRanWt=          -1 IRanGd=           0 AccXCQ= 0.00D+00.
 Defaulting to unpruned grid for atomic number  50.
 Defaulting to unpruned grid for atomic number  50.
 Defaulting to unpruned grid for atomic number  83.
 Generated NRdTot=       0 NPtTot=           0 NUsed=           0 NTot=          32
 NSgBfM=   501   501   501   501   501 MxSgAt=     9 MxSgA2=     9.
 Leave Link  302 at Thu Mar  8 11:09:39 2018, MaxMem=   536870912 cpu:        37.7
 (Enter /share/apps//mg09/l303.exe)
 DipDrv:  MaxL=1.
 Leave Link  303 at Thu Mar  8 11:09:39 2018, MaxMem=   536870912 cpu:         0.3
 (Enter /share/apps//mg09/l401.exe)
 ExpMin= 4.62D-02 ExpMax= 4.66D+05 ExpMxC= 4.50D+03 IAcc=2 IRadAn=         4 AccDes= 0.00D+00
 Harris functional with IExCor= 1009 and IRadAn=       4 diagonalized for initial guess.
 HarFok:  IExCor= 1009 AccDes= 0.00D+00 IRadAn=         4 IDoV= 1 UseB2=F ITyADJ=14
 ICtDFT=  3500011 ScaDFX=  1.000000  1.000000  1.000000  1.000000
 Defaulting to unpruned grid for atomic number  50.
 Defaulting to unpruned grid for atomic number  50.
 Defaulting to unpruned grid for atomic number  50.
 Defaulting to unpruned grid for atomic number  50.
 FoFCou: FMM=F IPFlag=           0 FMFlag=      100000 FMFlg1=           0
         NFxFlg=           0 DoJE=T BraDBF=F KetDBF=T FulRan=T
         wScrn=  0.000000 ICntrl=     500 IOpCl=  0 I1Cent=   200000004 NGrid=           0
         NMat0=    1 NMatS0=      1 NMatT0=    0 NMatD0=    1 NMtDS0=    0 NMtDT0=    0
 Petite list used in FoFCou.
 Harris En= -7518.60146935377    
 JPrj=0 DoOrth=F DoCkMO=F.
 Leave Link  401 at Thu Mar  8 11:09:43 2018, MaxMem=   536870912 cpu:        12.3
 (Enter /share/apps//mg09/l502.exe)
 Closed shell SCF:
 Using DIIS extrapolation, IDIIS=  1040.
 Integral symmetry usage will be decided dynamically.
 IVT=     1410107 IEndB=     1410107 NGot=   536870912 MDV=   536322046
 LenX=   536322046 LenY=   536052166
 Requested convergence on RMS density matrix=1.00D-08 within 768 cycles.
 Requested convergence on MAX density matrix=1.00D-06.
 Requested convergence on             energy=1.00D-06.
 No special actions if energy rises.
 Fock matrices will be formed incrementally for  20 cycles.

 Cycle   1  Pass 1  IDiag  1:
 FoFJK:  IHMeth= 1 ICntrl=       0 DoSepK=F KAlg= 0 I1Cent=   0 FoldK=F
 IRaf= 880000000 NMat=   1 IRICut=       1 DoRegI=T DoRafI=F ISym2E= 0.
 FoFCou: FMM=F IPFlag=           0 FMFlag=      100000 FMFlg1=           0
         NFxFlg=           0 DoJE=F BraDBF=F KetDBF=F FulRan=T
         wScrn=  0.000000 ICntrl=       0 IOpCl=  0 I1Cent=           0 NGrid=           0
         NMat0=    1 NMatS0=      1 NMatT0=    0 NMatD0=    1 NMtDS0=    0 NMtDT0=    0
 Symmetry not used in FoFCou.
 Defaulting to unpruned grid for atomic number  50.
 Defaulting to unpruned grid for atomic number  50.
 Defaulting to unpruned grid for atomic number  50.
 Defaulting to unpruned grid for atomic number  50.
 E= -7517.26288818126    
 DIIS: error= 2.76D-02 at cycle   1 NSaved=   1.
 NSaved= 1 IEnMin= 1 EnMin= -7517.26288818126     IErMin= 1 ErrMin= 2.76D-02
 ErrMax= 2.76D-02  0.00D+00 EMaxC= 1.00D-01 BMatC= 1.44D+00 BMatP= 1.44D+00
 IDIUse=3 WtCom= 7.24D-01 WtEn= 2.76D-01
 Coeff-Com:  0.100D+01
 Coeff-En:   0.100D+01
 Coeff:      0.100D+01
 Gap=     0.125 Goal=   None    Shift=    0.000
 GapD=    0.125 DampG=1.000 DampE=0.500 DampFc=0.5000 IDamp=-1.
 Damping current iteration by 5.00D-01
 RMSDP=4.80D-03 MaxDP=2.13D-01              OVMax= 4.99D-01

 Cycle   2  Pass 1  IDiag  1:
 RMSU=  2.40D-03    CP:  1.00D+00
 E= -7517.33288071973     Delta-E=       -0.069992538469 Rises=F Damp=T
 DIIS: error= 8.47D-03 at cycle   2 NSaved=   2.
 NSaved= 2 IEnMin= 2 EnMin= -7517.33288071973     IErMin= 2 ErrMin= 8.47D-03
 ErrMax= 8.47D-03  0.00D+00 EMaxC= 1.00D-01 BMatC= 1.78D-01 BMatP= 1.44D+00
 IDIUse=3 WtCom= 9.15D-01 WtEn= 8.47D-02
 Coeff-Com:  0.638D-01 0.936D+00
 Coeff-En:   0.439D+00 0.561D+00
 Coeff:      0.955D-01 0.904D+00
 Gap=     0.136 Goal=   None    Shift=    0.000
 RMSDP=2.87D-03 MaxDP=1.84D-01 DE=-7.00D-02 OVMax= 4.87D-01

 Cycle   3  Pass 1  IDiag  1:
 RMSU=  2.36D-03    CP:  1.01D+00  3.24D-01
 E= -7516.81488876923     Delta-E=        0.517991950495 Rises=F Damp=F
 DIIS: error= 2.16D-02 at cycle   3 NSaved=   3.
 NSaved= 3 IEnMin= 2 EnMin= -7517.33288071973     IErMin= 2 ErrMin= 8.47D-03
 ErrMax= 2.16D-02  0.00D+00 EMaxC= 1.00D-01 BMatC= 7.69D-01 BMatP= 1.78D-01
 IDIUse=2 WtCom= 0.00D+00 WtEn= 1.00D+00
 EnCoef did     7 forward-backward iterations
 Coeff-En:   0.147D+00 0.609D+00 0.245D+00
 Coeff:      0.147D+00 0.609D+00 0.245D+00
 Gap=     0.172 Goal=   None    Shift=    0.000
 RMSDP=2.76D-03 MaxDP=1.46D-01 DE= 5.18D-01 OVMax= 2.91D-01

 Cycle   4  Pass 1  IDiag  1:
 RMSU=  8.88D-04    CP:  1.01D+00  9.36D-01  8.67D-02
 E= -7517.72227914707     Delta-E=       -0.907390377835 Rises=F Damp=F
 DIIS: error= 6.93D-03 at cycle   4 NSaved=   4.
 NSaved= 4 IEnMin= 4 EnMin= -7517.72227914707     IErMin= 4 ErrMin= 6.93D-03
 ErrMax= 6.93D-03  0.00D+00 EMaxC= 1.00D-01 BMatC= 7.30D-02 BMatP= 1.78D-01
 IDIUse=3 WtCom= 9.31D-01 WtEn= 6.93D-02
 Coeff-Com:  0.603D-01 0.127D+00 0.183D+00 0.629D+00
 Coeff-En:   0.000D+00 0.000D+00 0.134D+00 0.866D+00
 Coeff:      0.561D-01 0.118D+00 0.180D+00 0.646D+00
 Gap=     0.114 Goal=   None    Shift=    0.000
 RMSDP=1.03D-03 MaxDP=5.89D-02 DE=-9.07D-01 OVMax= 1.31D-01

 Cycle   5  Pass 1  IDiag  1:
 RMSU=  6.41D-04    CP:  1.00D+00  7.33D-01  2.93D-01  5.65D-01
 E= -7517.77935338654     Delta-E=       -0.057074239472 Rises=F Damp=F
 DIIS: error= 3.85D-03 at cycle   5 NSaved=   5.
 NSaved= 5 IEnMin= 5 EnMin= -7517.77935338654     IErMin= 5 ErrMin= 3.85D-03
 ErrMax= 3.85D-03  0.00D+00 EMaxC= 1.00D-01 BMatC= 2.69D-02 BMatP= 7.30D-02
 IDIUse=3 WtCom= 9.61D-01 WtEn= 3.85D-02
 Coeff-Com:  0.518D-01-0.940D-01 0.448D-01 0.505D+00 0.493D+00
 Coeff-En:   0.000D+00 0.000D+00 0.000D+00 0.300D+00 0.700D+00
 Coeff:      0.498D-01-0.904D-01 0.430D-01 0.497D+00 0.501D+00
 Gap=     0.117 Goal=   None    Shift=    0.000
 RMSDP=4.78D-04 MaxDP=3.15D-02 DE=-5.71D-02 OVMax= 6.49D-02

 Cycle   6  Pass 1  IDiag  1:
 RMSU=  2.48D-04    CP:  1.00D+00  7.34D-01  2.16D-01  7.75D-01  5.12D-01
 E= -7517.80218683831     Delta-E=       -0.022833451767 Rises=F Damp=F
 DIIS: error= 2.03D-03 at cycle   6 NSaved=   6.
 NSaved= 6 IEnMin= 6 EnMin= -7517.80218683831     IErMin= 6 ErrMin= 2.03D-03
 ErrMax= 2.03D-03  0.00D+00 EMaxC= 1.00D-01 BMatC= 4.80D-03 BMatP= 2.69D-02
 IDIUse=3 WtCom= 9.80D-01 WtEn= 2.03D-02
 Coeff-Com:  0.338D-01-0.749D-01 0.194D-01 0.322D+00 0.371D+00 0.329D+00
 Coeff-En:   0.000D+00 0.000D+00 0.000D+00 0.000D+00 0.180D+00 0.820D+00
 Coeff:      0.331D-01-0.734D-01 0.190D-01 0.315D+00 0.367D+00 0.339D+00
 Gap=     0.115 Goal=   None    Shift=    0.000
 RMSDP=2.50D-04 MaxDP=9.03D-03 DE=-2.28D-02 OVMax= 3.45D-02

 Cycle   7  Pass 1  IDiag  1:
 RMSU=  1.03D-04    CP:  1.00D+00  7.37D-01  2.11D-01  7.78D-01  6.07D-01
                    CP:  1.17D-01
 E= -7517.80684580633     Delta-E=       -0.004658968026 Rises=F Damp=F
 DIIS: error= 1.15D-03 at cycle   7 NSaved=   7.
 NSaved= 7 IEnMin= 7 EnMin= -7517.80684580633     IErMin= 7 ErrMin= 1.15D-03
 ErrMax= 1.15D-03  0.00D+00 EMaxC= 1.00D-01 BMatC= 1.24D-03 BMatP= 4.80D-03
 IDIUse=3 WtCom= 9.88D-01 WtEn= 1.15D-02
 Coeff-Com:  0.131D-01-0.319D-01 0.286D-02 0.105D+00 0.152D+00 0.310D+00
 Coeff-Com:  0.450D+00
 Coeff-En:   0.000D+00 0.000D+00 0.000D+00 0.000D+00 0.000D+00 0.277D+00
 Coeff-En:   0.723D+00
 Coeff:      0.129D-01-0.315D-01 0.282D-02 0.104D+00 0.150D+00 0.309D+00
 Coeff:      0.453D+00
 Gap=     0.116 Goal=   None    Shift=    0.000
 RMSDP=9.81D-05 MaxDP=4.39D-03 DE=-4.66D-03 OVMax= 1.37D-02

 Cycle   8  Pass 1  IDiag  1:
 RMSU=  4.20D-05    CP:  1.00D+00  7.36D-01  2.23D-01  7.88D-01  5.80D-01
                    CP:  3.93D-01  5.74D-01
 E= -7517.80833793205     Delta-E=       -0.001492125721 Rises=F Damp=F
 DIIS: error= 1.47D-04 at cycle   8 NSaved=   8.
 NSaved= 8 IEnMin= 8 EnMin= -7517.80833793205     IErMin= 8 ErrMin= 1.47D-04
 ErrMax= 1.47D-04  0.00D+00 EMaxC= 1.00D-01 BMatC= 4.76D-05 BMatP= 1.24D-03
 IDIUse=3 WtCom= 9.99D-01 WtEn= 1.47D-03
 Coeff-Com:  0.588D-02-0.146D-01-0.250D-05 0.418D-01 0.619D-01 0.151D+00
 Coeff-Com:  0.259D+00 0.495D+00
 Coeff-En:   0.000D+00 0.000D+00 0.000D+00 0.000D+00 0.000D+00 0.000D+00
 Coeff-En:   0.000D+00 0.100D+01
 Coeff:      0.587D-02-0.146D-01-0.249D-05 0.417D-01 0.618D-01 0.151D+00
 Coeff:      0.259D+00 0.496D+00
 Gap=     0.115 Goal=   None    Shift=    0.000
 RMSDP=2.74D-05 MaxDP=1.79D-03 DE=-1.49D-03 OVMax= 3.72D-03

 Cycle   9  Pass 1  IDiag  1:
 RMSU=  1.75D-05    CP:  1.00D+00  7.37D-01  2.21D-01  7.84D-01  5.87D-01
                    CP:  3.96D-01  6.21D-01  5.58D-01
 E= -7517.80837383590     Delta-E=       -0.000035903844 Rises=F Damp=F
 DIIS: error= 1.03D-04 at cycle   9 NSaved=   9.
 NSaved= 9 IEnMin= 9 EnMin= -7517.80837383590     IErMin= 9 ErrMin= 1.03D-04
 ErrMax= 1.03D-04  0.00D+00 EMaxC= 1.00D-01 BMatC= 1.68D-05 BMatP= 4.76D-05
 IDIUse=3 WtCom= 9.99D-01 WtEn= 1.03D-03
 Coeff-Com:  0.149D-02-0.350D-02-0.829D-03 0.692D-02 0.115D-01 0.469D-01
 Coeff-Com:  0.100D+00 0.368D+00 0.470D+00
 Coeff-En:   0.000D+00 0.000D+00 0.000D+00 0.000D+00 0.000D+00 0.000D+00
 Coeff-En:   0.000D+00 0.295D+00 0.705D+00
 Coeff:      0.149D-02-0.350D-02-0.829D-03 0.691D-02 0.115D-01 0.469D-01
 Coeff:      0.100D+00 0.368D+00 0.470D+00
 Gap=     0.115 Goal=   None    Shift=    0.000
 RMSDP=1.55D-05 MaxDP=6.42D-04 DE=-3.59D-05 OVMax= 1.82D-03

 Cycle  10  Pass 1  IDiag  1:
 RMSU=  9.27D-06    CP:  1.00D+00  7.36D-01  2.20D-01  7.85D-01  5.88D-01
                    CP:  3.93D-01  6.33D-01  7.06D-01  4.08D-01
 E= -7517.80838649542     Delta-E=       -0.000012659522 Rises=F Damp=F
 DIIS: error= 5.94D-05 at cycle  10 NSaved=  10.
 NSaved=10 IEnMin=10 EnMin= -7517.80838649542     IErMin=10 ErrMin= 5.94D-05
 ErrMax= 5.94D-05  0.00D+00 EMaxC= 1.00D-01 BMatC= 5.76D-06 BMatP= 1.68D-05
 IDIUse=1 WtCom= 1.00D+00 WtEn= 0.00D+00
 Coeff-Com:  0.376D-03-0.724D-03-0.664D-03-0.372D-03 0.662D-03 0.185D-01
 Coeff-Com:  0.483D-01 0.221D+00 0.379D+00 0.334D+00
 Coeff:      0.376D-03-0.724D-03-0.664D-03-0.372D-03 0.662D-03 0.185D-01
 Coeff:      0.483D-01 0.221D+00 0.379D+00 0.334D+00
 Gap=     0.115 Goal=   None    Shift=    0.000
 RMSDP=7.36D-06 MaxDP=4.37D-04 DE=-1.27D-05 OVMax= 8.49D-04

 Cycle  11  Pass 1  IDiag  1:
 RMSU=  2.40D-06    CP:  1.00D+00  7.36D-01  2.20D-01  7.86D-01  5.87D-01
                    CP:  3.96D-01  6.36D-01  7.23D-01  6.05D-01  3.64D-01
 E= -7517.80839415055     Delta-E=       -0.000007655130 Rises=F Damp=F
 DIIS: error= 7.72D-06 at cycle  11 NSaved=  11.
 NSaved=11 IEnMin=11 EnMin= -7517.80839415055     IErMin=11 ErrMin= 7.72D-06
 ErrMax= 7.72D-06  0.00D+00 EMaxC= 1.00D-01 BMatC= 1.63D-07 BMatP= 5.76D-06
 IDIUse=1 WtCom= 1.00D+00 WtEn= 0.00D+00
 Coeff-Com:  0.141D-05 0.168D-04-0.195D-03-0.941D-03-0.145D-02 0.212D-02
 Coeff-Com:  0.978D-02 0.511D-01 0.128D+00 0.182D+00 0.630D+00
 Coeff:      0.141D-05 0.168D-04-0.195D-03-0.941D-03-0.145D-02 0.212D-02
 Coeff:      0.978D-02 0.511D-01 0.128D+00 0.182D+00 0.630D+00
 Gap=     0.115 Goal=   None    Shift=    0.000
 RMSDP=1.28D-06 MaxDP=7.60D-05 DE=-7.66D-06 OVMax= 1.29D-04

 Cycle  12  Pass 1  IDiag  1:
 RMSU=  7.46D-07    CP:  1.00D+00  7.36D-01  2.20D-01  7.86D-01  5.87D-01
                    CP:  3.96D-01  6.38D-01  7.23D-01  6.08D-01  4.51D-01
                    CP:  8.69D-01
 E= -7517.80839433283     Delta-E=       -0.000000182281 Rises=F Damp=F
 DIIS: error= 2.47D-06 at cycle  12 NSaved=  12.
 NSaved=12 IEnMin=12 EnMin= -7517.80839433283     IErMin=12 ErrMin= 2.47D-06
 ErrMax= 2.47D-06  0.00D+00 EMaxC= 1.00D-01 BMatC= 1.12D-08 BMatP= 1.63D-07
 IDIUse=1 WtCom= 1.00D+00 WtEn= 0.00D+00
 Coeff-Com: -0.643D-04 0.126D-03 0.249D-04-0.563D-03-0.105D-02-0.155D-02
 Coeff-Com: -0.149D-02-0.763D-02 0.662D-02 0.367D-01 0.240D+00 0.729D+00
 Coeff:     -0.643D-04 0.126D-03 0.249D-04-0.563D-03-0.105D-02-0.155D-02
 Coeff:     -0.149D-02-0.763D-02 0.662D-02 0.367D-01 0.240D+00 0.729D+00
 Gap=     0.115 Goal=   None    Shift=    0.000
 RMSDP=4.81D-07 MaxDP=1.78D-05 DE=-1.82D-07 OVMax= 8.42D-05

 Cycle  13  Pass 1  IDiag  1:
 RMSU=  2.89D-07    CP:  1.00D+00  7.36D-01  2.20D-01  7.86D-01  5.87D-01
                    CP:  3.96D-01  6.40D-01  7.24D-01  6.18D-01  4.65D-01
                    CP:  9.44D-01  9.07D-01
 E= -7517.80839434675     Delta-E=       -0.000000013924 Rises=F Damp=F
 DIIS: error= 1.05D-06 at cycle  13 NSaved=  13.
 NSaved=13 IEnMin=13 EnMin= -7517.80839434675     IErMin=13 ErrMin= 1.05D-06
 ErrMax= 1.05D-06  0.00D+00 EMaxC= 1.00D-01 BMatC= 1.85D-09 BMatP= 1.12D-08
 IDIUse=1 WtCom= 1.00D+00 WtEn= 0.00D+00
 Coeff-Com: -0.341D-04 0.640D-04 0.326D-04-0.239D-03-0.487D-03-0.113D-02
 Coeff-Com: -0.193D-02-0.930D-02-0.881D-02 0.407D-02 0.769D-01 0.418D+00
 Coeff-Com:  0.523D+00
 Coeff:     -0.341D-04 0.640D-04 0.326D-04-0.239D-03-0.487D-03-0.113D-02
 Coeff:     -0.193D-02-0.930D-02-0.881D-02 0.407D-02 0.769D-01 0.418D+00
 Coeff:      0.523D+00
 Gap=     0.115 Goal=   None    Shift=    0.000
 RMSDP=1.69D-07 MaxDP=9.39D-06 DE=-1.39D-08 OVMax= 2.01D-05

 Cycle  14  Pass 1  IDiag  1:
 RMSU=  9.79D-08    CP:  1.00D+00  7.36D-01  2.20D-01  7.86D-01  5.88D-01
                    CP:  3.96D-01  6.41D-01  7.25D-01  6.19D-01  4.68D-01
                    CP:  9.48D-01  1.00D+00  7.13D-01
 E= -7517.80839434886     Delta-E=       -0.000000002105 Rises=F Damp=F
 DIIS: error= 2.59D-07 at cycle  14 NSaved=  14.
 NSaved=14 IEnMin=14 EnMin= -7517.80839434886     IErMin=14 ErrMin= 2.59D-07
 ErrMax= 2.59D-07  0.00D+00 EMaxC= 1.00D-01 BMatC= 1.74D-10 BMatP= 1.85D-09
 IDIUse=1 WtCom= 1.00D+00 WtEn= 0.00D+00
 Coeff-Com: -0.774D-05 0.148D-04 0.107D-04-0.500D-04-0.983D-04-0.323D-03
 Coeff-Com: -0.704D-03-0.339D-02-0.544D-02-0.372D-02 0.315D-02 0.110D+00
 Coeff-Com:  0.267D+00 0.634D+00
 Coeff:     -0.774D-05 0.148D-04 0.107D-04-0.500D-04-0.983D-04-0.323D-03
 Coeff:     -0.704D-03-0.339D-02-0.544D-02-0.372D-02 0.315D-02 0.110D+00
 Coeff:      0.267D+00 0.634D+00
 Gap=     0.115 Goal=   None    Shift=    0.000
 RMSDP=5.79D-08 MaxDP=4.01D-06 DE=-2.10D-09 OVMax= 9.74D-06

 Cycle  15  Pass 1  IDiag  1:
 RMSU=  3.58D-08    CP:  1.00D+00  7.36D-01  2.20D-01  7.86D-01  5.88D-01
                    CP:  3.96D-01  6.41D-01  7.26D-01  6.19D-01  4.69D-01
                    CP:  9.57D-01  1.01D+00  7.76D-01  8.77D-01
 E= -7517.80839434910     Delta-E=       -0.000000000246 Rises=F Damp=F
 DIIS: error= 8.82D-08 at cycle  15 NSaved=  15.
 NSaved=15 IEnMin=15 EnMin= -7517.80839434910     IErMin=15 ErrMin= 8.82D-08
 ErrMax= 8.82D-08  0.00D+00 EMaxC= 1.00D-01 BMatC= 2.20D-11 BMatP= 1.74D-10
 IDIUse=1 WtCom= 1.00D+00 WtEn= 0.00D+00
 Coeff-Com:  0.109D-05-0.210D-05 0.334D-06 0.109D-04 0.223D-04-0.176D-04
 Coeff-Com: -0.995D-04-0.490D-03-0.138D-02-0.227D-02-0.735D-02-0.528D-02
 Coeff-Com:  0.568D-01 0.292D+00 0.668D+00
 Coeff:      0.109D-05-0.210D-05 0.334D-06 0.109D-04 0.223D-04-0.176D-04
 Coeff:     -0.995D-04-0.490D-03-0.138D-02-0.227D-02-0.735D-02-0.528D-02
 Coeff:      0.568D-01 0.292D+00 0.668D+00
 Gap=     0.115 Goal=   None    Shift=    0.000
 RMSDP=2.01D-08 MaxDP=8.32D-07 DE=-2.46D-10 OVMax= 3.84D-06

 Cycle  16  Pass 1  IDiag  1:
 RMSU=  1.16D-08    CP:  1.00D+00  7.36D-01  2.20D-01  7.86D-01  5.88D-01
                    CP:  3.96D-01  6.41D-01  7.26D-01  6.20D-01  4.69D-01
                    CP:  9.59D-01  1.02D+00  7.91D-01  9.64D-01  8.67D-01
 E= -7517.80839434940     Delta-E=       -0.000000000300 Rises=F Damp=F
 DIIS: error= 3.85D-08 at cycle  16 NSaved=  16.
 NSaved=16 IEnMin=16 EnMin= -7517.80839434940     IErMin=16 ErrMin= 3.85D-08
 ErrMax= 3.85D-08  0.00D+00 EMaxC= 1.00D-01 BMatC= 3.19D-12 BMatP= 2.20D-11
 IDIUse=1 WtCom= 1.00D+00 WtEn= 0.00D+00
 Coeff-Com:  0.154D-05-0.299D-05-0.705D-06 0.125D-04 0.235D-04 0.238D-04
 Coeff-Com:  0.112D-04 0.531D-04-0.276D-03-0.922D-03-0.454D-02-0.136D-01
 Coeff-Com:  0.941D-02 0.105D+00 0.367D+00 0.538D+00
 Coeff:      0.154D-05-0.299D-05-0.705D-06 0.125D-04 0.235D-04 0.238D-04
 Coeff:      0.112D-04 0.531D-04-0.276D-03-0.922D-03-0.454D-02-0.136D-01
 Coeff:      0.941D-02 0.105D+00 0.367D+00 0.538D+00
 Gap=     0.115 Goal=   None    Shift=    0.000
 RMSDP=6.31D-09 MaxDP=3.88D-07 DE=-3.00D-10 OVMax= 1.10D-06

 SCF Done:  E(RPBE1PBE) =  -7517.80839435     A.U. after   16 cycles
            NFock= 16  Conv=0.63D-08     -V/T= 2.1285
 KE= 6.661964822900D+03 PE=-2.465128772149D+04 EE= 6.941543152986D+03
 Leave Link  502 at Thu Mar  8 11:25:21 2018, MaxMem=   536870912 cpu:      3404.4
 (Enter /share/apps//mg09/l601.exe)
 Copying SCF densities to generalized density rwf, IOpCl= 0 IROHF=0.

 **********************************************************************

            Population analysis using the SCF density.

 **********************************************************************

 Orbital symmetries:
       Occupied  (A) (A) (A) (A) (A) (A) (A) (A) (A) (A) (A) (A)
                 (A) (A) (A) (A) (A) (A) (A) (A) (A) (A) (A) (A)
                 (A) (A) (A) (A) (A) (A) (A) (A) (A) (A) (A) (A)
                 (A) (A) (A) (A) (A) (A) (A) (A) (A) (A) (A) (A)
                 (A) (A) (A) (A) (A) (A) (A) (A) (A) (A) (A) (A)
                 (A) (A) (A) (A) (A) (A) (A) (A) (A) (A) (A) (A)
                 (A) (A) (A) (A) (A) (A) (A) (A) (A) (A) (A) (A)
                 (A) (A) (A) (A) (A) (A) (A) (A) (A) (A) (A) (A)
                 (A) (A) (A) (A) (A) (A) (A) (A) (A) (A) (A) (A)
                 (A) (A) (A) (A) (A) (A) (A) (A)
       Virtual   (A) (A) (A) (A) (A) (A) (A) (A) (A) (A) (A) (A)
                 (A) (A) (A) (A) (A) (A) (A) (A) (A) (A) (A) (A)
                 (A) (A) (A) (A) (A) (A) (A) (A) (A) (A) (A) (A)
                 (A) (A) (A) (A) (A) (A) (A) (A) (A) (A) (A) (A)
                 (A) (A) (A) (A) (A) (A) (A) (A) (A) (A) (A) (A)
                 (A) (A) (A) (A) (A) (A) (A) (A) (A) (A) (A) (A)
                 (A) (A) (A) (A) (A) (A) (A) (A) (A) (A) (A) (A)
                 (A) (A) (A) (A) (A) (A) (A) (A) (A) (A) (A) (A)
                 (A) (A) (A) (A) (A) (A) (A) (A) (A) (A) (A) (A)
                 (A) (A) (A) (A) (A) (A) (A) (A) (A) (A) (A) (A)
                 (A) (A) (A) (A) (A) (A) (A) (A) (A) (A) (A) (A)
                 (A) (A) (A) (A) (A) (A) (A) (A) (A) (A) (A) (A)
                 (A) (A) (A) (A) (A) (A) (A) (A) (A) (A) (A) (A)
                 (A) (A) (A) (A) (A) (A) (A) (A) (A) (A) (A) (A)
                 (A) (A) (A) (A) (A) (A) (A) (A) (A) (A) (A) (A)
                 (A) (A) (A) (A) (A) (A) (A) (A) (A) (A) (A) (A)
                 (A) (A) (A) (A) (A) (A) (A) (A) (A) (A) (A) (A)
                 (A) (A) (A) (A) (A) (A) (A) (A) (A) (A) (A) (A)
                 (A) (A) (A) (A) (A) (A) (A) (A) (A) (A) (A) (A)
                 (A) (A) (A) (A) (A) (A) (A) (A) (A) (A) (A) (A)
                 (A) (A) (A) (A) (A) (A) (A) (A) (A) (A) (A) (A)
                 (A) (A) (A) (A) (A) (A) (A) (A) (A) (A) (A) (A)
                 (A) (A) (A) (A) (A) (A) (A) (A) (A) (A) (A) (A)
                 (A) (A) (A) (A) (A) (A) (A) (A) (A) (A) (A) (A)
                 (A) (A) (A) (A) (A) (A) (A) (A) (A) (A) (A) (A)
                 (A) (A) (A) (A) (A) (A) (A) (A) (A) (A) (A) (A)
                 (A) (A) (A) (A) (A) (A) (A) (A) (A) (A) (A) (A)
                 (A) (A) (A) (A)
 The electronic state is 1-A.
 Alpha  occ. eigenvalues -- -399.10234-399.09333-399.08676 -49.91773 -49.90943
 Alpha  occ. eigenvalues --  -49.90271 -44.39879 -44.39831 -44.39783 -44.39030
 Alpha  occ. eigenvalues --  -44.39008 -44.38945 -44.38352 -44.38333 -44.38289
 Alpha  occ. eigenvalues --   -6.28267  -6.27455  -6.26770  -6.02707  -6.02055
 Alpha  occ. eigenvalues --   -6.01776  -6.01365  -5.13612  -5.13212  -4.43773
 Alpha  occ. eigenvalues --   -4.43625  -4.43454  -4.42929  -4.42859  -4.42642
 Alpha  occ. eigenvalues --   -4.42224  -4.42152  -4.42000  -3.74983  -3.74826
 Alpha  occ. eigenvalues --   -3.74735  -3.74361  -3.74187  -3.74050  -3.74036
 Alpha  occ. eigenvalues --   -3.73962  -3.73721  -3.73704  -3.73438  -3.73362
 Alpha  occ. eigenvalues --   -3.46852  -3.46705  -3.46632  -3.46464  -3.46392
 Alpha  occ. eigenvalues --   -3.46121  -1.23223  -1.23190  -1.23042  -1.22964
 Alpha  occ. eigenvalues --   -1.22912  -1.22417  -1.22400  -1.22202  -1.22158
 Alpha  occ. eigenvalues --   -1.22098  -1.21699  -1.21678  -1.21545  -1.21473
 Alpha  occ. eigenvalues --   -1.21455  -1.08953  -1.08678  -1.08535  -1.08477
 Alpha  occ. eigenvalues --   -1.08373  -1.08069  -1.07943  -1.07852  -1.07774
 Alpha  occ. eigenvalues --   -1.07716  -1.07698  -1.07621  -1.07556  -1.07411
 Alpha  occ. eigenvalues --   -1.07303  -1.07217  -1.07105  -1.06945  -1.06923
 Alpha  occ. eigenvalues --   -1.06871  -1.03023  -1.02995  -1.02942  -1.02834
 Alpha  occ. eigenvalues --   -1.02777  -1.02694  -1.02688  -1.02420  -1.02386
 Alpha  occ. eigenvalues --   -1.02311  -0.66920  -0.62233  -0.60256  -0.55519
 Alpha  occ. eigenvalues --   -0.51704  -0.47062  -0.43801  -0.42110  -0.40437
 Alpha  occ. eigenvalues --   -0.29110  -0.27940  -0.26828  -0.25366  -0.25126
 Alpha  occ. eigenvalues --   -0.24477  -0.23224  -0.23070  -0.21952  -0.20817
 Alpha  occ. eigenvalues --   -0.19398
 Alpha virt. eigenvalues --   -0.07875  -0.07443  -0.07270  -0.06936  -0.05856
 Alpha virt. eigenvalues --   -0.05504  -0.05231  -0.04789  -0.04268  -0.04236
 Alpha virt. eigenvalues --   -0.02929  -0.02072  -0.01149   0.03630   0.04905
 Alpha virt. eigenvalues --    0.05297   0.06462   0.07922   0.08756   0.08888
 Alpha virt. eigenvalues --    0.09248   0.09490   0.09616   0.10214   0.10265
 Alpha virt. eigenvalues --    0.11029   0.11846   0.11930   0.12188   0.12805
 Alpha virt. eigenvalues --    0.13870   0.14973   0.16249   0.16720   0.16847
 Alpha virt. eigenvalues --    0.17969   0.19233   0.19730   0.20045   0.20387
 Alpha virt. eigenvalues --    0.20658   0.21104   0.22134   0.23576   0.24030
 Alpha virt. eigenvalues --    0.24536   0.26058   0.26339   0.27620   0.29006
 Alpha virt. eigenvalues --    0.29953   0.30190   0.30354   0.30866   0.31123
 Alpha virt. eigenvalues --    0.31535   0.32085   0.32848   0.33098   0.33950
 Alpha virt. eigenvalues --    0.34177   0.35352   0.35639   0.36200   0.37571
 Alpha virt. eigenvalues --    0.38707   0.39771   0.40349   0.40763   0.41815
 Alpha virt. eigenvalues --    0.42430   0.43167   0.43449   0.44351   0.45043
 Alpha virt. eigenvalues --    0.45357   0.45937   0.47057   0.47201   0.47760
 Alpha virt. eigenvalues --    0.49184   0.49288   0.49686   0.50617   0.51524
 Alpha virt. eigenvalues --    0.52255   0.53944   0.54257   0.54549   0.55224
 Alpha virt. eigenvalues --    0.56587   0.57208   0.57783   0.58539   0.59066
 Alpha virt. eigenvalues --    0.59930   0.60620   0.61001   0.61935   0.62325
 Alpha virt. eigenvalues --    0.62965   0.63167   0.64553   0.65750   0.66374
 Alpha virt. eigenvalues --    0.66673   0.67319   0.67842   0.67966   0.70013
 Alpha virt. eigenvalues --    0.70770   0.71280   0.72823   0.73008   0.73996
 Alpha virt. eigenvalues --    0.75627   0.75963   0.77109   0.77811   0.78234
 Alpha virt. eigenvalues --    0.79024   0.79686   0.80452   0.80756   0.82851
 Alpha virt. eigenvalues --    0.83858   0.84378   0.84760   0.85726   0.86205
 Alpha virt. eigenvalues --    0.86480   0.87604   0.87951   0.89536   0.89820
 Alpha virt. eigenvalues --    0.90877   0.91483   0.92133   0.92502   0.93250
 Alpha virt. eigenvalues --    0.93894   0.94002   0.95618   0.96026   0.97403
 Alpha virt. eigenvalues --    0.98434   0.98475   0.98569   0.99920   1.01330
 Alpha virt. eigenvalues --    1.02379   1.03019   1.03706   1.05613   1.06793
 Alpha virt. eigenvalues --    1.08633   1.09888   1.11005   1.11406   1.12845
 Alpha virt. eigenvalues --    1.13234   1.14160   1.14966   1.15569   1.16718
 Alpha virt. eigenvalues --    1.17076   1.18386   1.19198   1.19802   1.20973
 Alpha virt. eigenvalues --    1.21159   1.21314   1.22167   1.22354   1.22496
 Alpha virt. eigenvalues --    1.22695   1.22924   1.23610   1.23628   1.24529
 Alpha virt. eigenvalues --    1.24871   1.25342   1.26024   1.26532   1.27164
 Alpha virt. eigenvalues --    1.27522   1.28124   1.28312   1.29431   1.29891
 Alpha virt. eigenvalues --    1.30684   1.31102   1.32614   1.33171   1.34168
 Alpha virt. eigenvalues --    1.35535   1.35901   1.36422   1.37752   1.39032
 Alpha virt. eigenvalues --    1.39865   1.40375   1.41858   1.42443   1.44194
 Alpha virt. eigenvalues --    1.45606   1.45967   1.46393   1.47211   1.48322
 Alpha virt. eigenvalues --    1.49149   1.50861   1.51191   1.51777   1.52391
 Alpha virt. eigenvalues --    1.54094   1.55514   1.56272   1.57279   1.59170
 Alpha virt. eigenvalues --    1.64691   1.68642   1.70678   2.03987   2.08524
 Alpha virt. eigenvalues --    2.09053   2.10746   2.11773   2.15391   2.16610
 Alpha virt. eigenvalues --    2.16970   2.17664   2.18757   2.20470   2.20888
 Alpha virt. eigenvalues --    2.21435   2.22446   2.23780   2.25460   2.26078
 Alpha virt. eigenvalues --    2.26545   2.28666   2.29210   2.29395   2.32045
 Alpha virt. eigenvalues --    2.32898   2.35724   2.36548   2.39288   2.39397
 Alpha virt. eigenvalues --    2.40634   2.41538   2.43213   2.44508   2.48335
 Alpha virt. eigenvalues --    2.49124   2.50390   2.51290   2.52977   2.55542
 Alpha virt. eigenvalues --    2.55808   2.60861   2.61686   2.63510   2.65444
 Alpha virt. eigenvalues --    2.69343   2.69613   2.72544   2.73206   2.74687
 Alpha virt. eigenvalues --    2.77389   2.78604   2.79164   2.79816   2.81387
 Alpha virt. eigenvalues --    2.82841   2.84782   2.86598   2.88343   2.93629
 Alpha virt. eigenvalues --    3.18510   3.23989   3.33900   3.34760   3.39443
 Alpha virt. eigenvalues --    3.43152   3.93847   3.96825   3.98150   3.99702
 Alpha virt. eigenvalues --    4.00806   4.03098   4.04676   4.05855   4.17391
 Alpha virt. eigenvalues --    5.30035   5.33206   5.36600  35.37643  35.39743
 Alpha virt. eigenvalues --   35.41653  35.45051  35.45893  35.46541  35.49717
 Alpha virt. eigenvalues --   35.52032  35.55088  35.56054  35.60541  35.62553
 Alpha virt. eigenvalues --   35.89564  35.90553  36.00698  36.09113  36.19806
 Alpha virt. eigenvalues --   36.21687  36.91939  36.99442  37.02244  37.05457
 Alpha virt. eigenvalues --   37.07822  37.12242 113.57315 113.58678 120.22278
 Alpha virt. eigenvalues --  120.22968 120.24878 120.25685
          Condensed to atoms (all electrons):
               1          2          3          4          5          6
     1  Sn  21.336197  -0.015667   0.117406   0.069603   0.116780  -0.022927
     2  Bi  -0.015667  22.419837  -0.023964   0.125335  -0.012307   0.180596
     3  Bi   0.117406  -0.023964  22.282213  -0.030866   0.167700   0.127692
     4  Ge   0.069603   0.125335  -0.030866  31.525118  -0.014786   0.057596
     5  Ge   0.116780  -0.012307   0.167700  -0.014786  31.612505  -0.021790
     6  Bi  -0.022927   0.180596   0.127692   0.057596  -0.021790  22.278003
     7  Sn  -0.016750   0.156488   0.130016  -0.016577   0.194737   0.120323
     8  Bi   0.151279   0.186668  -0.024419   0.159805   0.179264  -0.024783
     9  Ge   0.148109  -0.018321   0.125720   0.186138  -0.011348   0.177044
               7          8          9
     1  Sn  -0.016750   0.151279   0.148109
     2  Bi   0.156488   0.186668  -0.018321
     3  Bi   0.130016  -0.024419   0.125720
     4  Ge  -0.016577   0.159805   0.186138
     5  Ge   0.194737   0.179264  -0.011348
     6  Bi   0.120323  -0.024783   0.177044
     7  Sn  21.438973  -0.011066  -0.012673
     8  Bi  -0.011066  22.329982  -0.020010
     9  Ge  -0.012673  -0.020010  31.617083
 Mulliken charges:
               1
     1  Sn   0.115970
     2  Bi   0.001335
     3  Bi   0.128502
     4  Ge  -0.061365
     5  Ge  -0.210755
     6  Bi   0.128246
     7  Sn   0.016529
     8  Bi   0.073280
     9  Ge  -0.191741
 Sum of Mulliken charges =   0.00000
 Mulliken charges with hydrogens summed into heavy atoms:
               1
     1  Sn   0.115970
     2  Bi   0.001335
     3  Bi   0.128502
     4  Ge  -0.061365
     5  Ge  -0.210755
     6  Bi   0.128246
     7  Sn   0.016529
     8  Bi   0.073280
     9  Ge  -0.191741
 Electronic spatial extent (au):  <R**2>=           6018.5048
 Charge=              0.0000 electrons
 Dipole moment (field-independent basis, Debye):
    X=             -0.1962    Y=             -1.0008    Z=              0.1542  Tot=              1.0315
 Quadrupole moment (field-independent basis, Debye-Ang):
   XX=           -214.5787   YY=           -215.7751   ZZ=           -224.1574
   XY=              0.2629   XZ=             -1.0328   YZ=             -0.8578
 Traceless Quadrupole moment (field-independent basis, Debye-Ang):
   XX=              3.5917   YY=              2.3953   ZZ=             -5.9870
   XY=              0.2629   XZ=             -1.0328   YZ=             -0.8578
 Octapole moment (field-independent basis, Debye-Ang**2):
  XXX=            -29.0358  YYY=            -79.5489  ZZZ=             17.1942  XYY=            -11.7577
  XXY=            -22.0505  XXZ=             15.5368  XZZ=            -11.3741  YZZ=            -27.8337
  YYZ=             -5.8356  XYZ=              4.8718
 Hexadecapole moment (field-independent basis, Debye-Ang**3):
 XXXX=          -3287.5047 YYYY=          -3419.0498 ZZZZ=          -2893.7652 XXXY=            -11.8254
 XXXZ=             17.9133 YYYX=            -24.7515 YYYZ=             62.3724 ZZZX=             12.7224
 ZZZY=             47.6656 XXYY=          -1101.0056 XXZZ=          -1055.4490 YYZZ=          -1069.2767
 XXYZ=             32.6076 YYXZ=            -17.7532 ZZXY=             -8.2170
 N-N= 3.529971351255D+03 E-N=-2.465128771949D+04  KE= 6.661964822900D+03
 No NMR shielding tensors so no spin-rotation constants.
 Leave Link  601 at Thu Mar  8 11:25:22 2018, MaxMem=   536870912 cpu:         1.8
 (Enter /share/apps//mg09/l701.exe)
 Compute integral first derivatives.
 ... and contract with generalized density number  0.
   1 Symmetry operations used in ECPInt.
 ECPInt:  NShTT=   10440 NPrTT=   41973 LenC2=    9664 LenP2D=   27481.
 LDataN:  DoStor=T MaxTD1= 9 Len=  602
 Leave Link  701 at Thu Mar  8 11:25:44 2018, MaxMem=   536870912 cpu:        82.1
 (Enter /share/apps//mg09/l702.exe)
 L702 exits ... SP integral derivatives will be done elsewhere.
 Leave Link  702 at Thu Mar  8 11:25:44 2018, MaxMem=   536870912 cpu:         0.0
 (Enter /share/apps//mg09/l703.exe)
 Compute integral first derivatives, UseDBF=F ICtDFT=           0.
 Integral derivatives from FoFJK, PRISM(SPDF).
 Calling FoFJK, ICntrl=      2127 FMM=F ISym2X=0 I1Cent= 0 IOpClX= 0 NMat=1 NMatS=1 NMatT=0.
 FoFJK:  IHMeth= 1 ICntrl=    2127 DoSepK=F KAlg= 0 I1Cent=   0 FoldK=F
 IRaf=         0 NMat=   1 IRICut=       1 DoRegI=T DoRafI=F ISym2E= 0.
 FoFCou: FMM=F IPFlag=           0 FMFlag=      100000 FMFlg1=         800
         NFxFlg=           0 DoJE=F BraDBF=F KetDBF=F FulRan=T
         wScrn=  0.000000 ICntrl=    2127 IOpCl=  0 I1Cent=           0 NGrid=           0
         NMat0=    1 NMatS0=      1 NMatT0=    0 NMatD0=    1 NMtDS0=    0 NMtDT0=    0
 Symmetry not used in FoFCou.
 Defaulting to unpruned grid for atomic number  50.
 Defaulting to unpruned grid for atomic number  50.
 Defaulting to unpruned grid for atomic number  50.
 Defaulting to unpruned grid for atomic number  50.
 Leave Link  703 at Thu Mar  8 11:29:17 2018, MaxMem=   536870912 cpu:       822.8
 (Enter /share/apps//mg09/l716.exe)
 Dipole        =-7.72045266D-02-3.93745792D-01 6.06787573D-02
 ***** Axes restored to original set *****
 -------------------------------------------------------------------
 Center     Atomic                   Forces (Hartrees/Bohr)
 Number     Number              X              Y              Z
 -------------------------------------------------------------------
      1       50           0.000943669   -0.013881188   -0.002962929
      2       83          -0.005370079    0.005493673    0.000893200
      3       83           0.010221447    0.000440895    0.002360900
      4       32          -0.009059253    0.002502424   -0.010191397
      5       32          -0.001996627   -0.006816213    0.011220852
      6       83           0.002878439    0.008432378   -0.001004993
      7       50           0.000723871    0.008012523    0.008469302
      8       83          -0.009466278   -0.003328430    0.001328946
      9       32           0.011124811   -0.000856063   -0.010113880
 -------------------------------------------------------------------
 Cartesian Forces:  Max     0.013881188 RMS     0.006904278
 Force constants in Cartesian coordinates: 
                1             2             3             4             5 
      1  0.135006D+00
      2 -0.606471D-02  0.211621D+00
      3 -0.142905D-01  0.223274D-01  0.138603D+00
      4  0.293769D-02  0.820204D-02  0.170158D-02  0.149022D+00
      5  0.590814D-03 -0.308759D-02 -0.420915D-02 -0.284036D-01  0.144991D+00
      6 -0.170646D-02 -0.188413D-03  0.528570D-02 -0.312034D-02  0.154767D-01
      7 -0.377302D-01  0.893711D-02 -0.511057D-02 -0.386057D-02  0.868136D-02
      8 -0.256858D-01 -0.390014D-01 -0.180874D-01 -0.345853D-04  0.177802D-02
      9 -0.157940D-01 -0.390090D-02 -0.224611D-01 -0.253390D-02  0.137804D-02
     10 -0.188319D-01 -0.111066D-02 -0.121951D-01 -0.297919D-01  0.165359D-01
     11  0.177525D-01 -0.353502D-01  0.182119D-01  0.343944D-02 -0.339505D-01
     12 -0.536004D-02 -0.137097D-01 -0.291301D-01 -0.107683D-01 -0.772738D-02
     13 -0.148927D-01 -0.190097D-02  0.745670D-02  0.179653D-02  0.535794D-02
     14  0.237101D-02 -0.349920D-01 -0.286738D-01  0.579601D-02 -0.132845D-02
     15  0.462932D-02  0.117576D-01 -0.466505D-01  0.436426D-03  0.543721D-02
     16  0.625602D-02 -0.474380D-02  0.686625D-03 -0.588934D-01 -0.236977D-01
     17 -0.958481D-04 -0.964970D-02 -0.310083D-02  0.137904D-01 -0.307446D-01
     18  0.159596D-02  0.311843D-02  0.750819D-02  0.963983D-02  0.627512D-02
     19  0.534981D-02 -0.154321D-02 -0.256130D-02 -0.335655D-01  0.929827D-03
     20  0.306830D-02 -0.155978D-02 -0.187352D-02  0.134454D-01 -0.233507D-01
     21  0.965639D-03 -0.899235D-02  0.167837D-02 -0.289976D-02 -0.108065D-01
     22 -0.500967D-01 -0.507146D-02  0.102357D-01 -0.285612D-01  0.128742D-01
     23  0.324034D-01 -0.381119D-01 -0.105973D-01 -0.211154D-01 -0.582297D-01
     24  0.182374D-01 -0.106135D-02 -0.205396D-01  0.246827D-03 -0.361331D-02
     25 -0.279983D-01  0.329566D-02  0.140769D-01  0.916401D-03  0.713120D-02
     26 -0.243397D-01 -0.498682D-01  0.260027D-01  0.488029D-02  0.392224D-02
     27  0.117227D-01 -0.935080D-02 -0.342935D-01  0.729769D-02 -0.221075D-02
                6             7             8             9            10 
      6  0.109395D+00
      7 -0.850716D-03  0.223306D+00
      8 -0.926325D-03 -0.567531D-02  0.138649D+00
      9  0.537199D-02  0.146167D-01 -0.564031D-02  0.175001D+00
     10  0.168252D-01 -0.379872D-02  0.168241D-02 -0.384444D-02  0.174543D+00
     11 -0.338953D-01  0.159337D-02  0.717543D-02  0.361329D-03 -0.322480D-02
     12 -0.519349D-01 -0.126071D-01  0.158103D-02 -0.979979D-03  0.187106D-01
     13  0.802970D-03 -0.645156D-01 -0.257552D-01  0.330673D-01  0.574314D-02
     14  0.526375D-02 -0.499101D-02 -0.262097D-01  0.128551D-01  0.200046D-02
     15  0.359298D-03 -0.379994D-03  0.104439D-01 -0.408644D-01 -0.464059D-02
     16  0.160821D-01 -0.334848D-01  0.229875D-01 -0.129759D-01 -0.257128D-01
     17 -0.383987D-02 -0.105367D-01 -0.421184D-01  0.784497D-02 -0.574629D-02
     18 -0.206880D-01  0.115648D-02  0.190602D-01 -0.235323D-01 -0.174116D-01
     19 -0.317511D-01 -0.391287D-01  0.270942D-01  0.203925D-01  0.474639D-02
     20  0.700622D-02  0.610145D-02 -0.266501D-01 -0.165187D-01 -0.260027D-02
     21 -0.358128D-01 -0.843946D-02 -0.547223D-02 -0.309691D-01 -0.293966D-02
     22  0.121882D-03 -0.646150D-02  0.302944D-02 -0.284338D-02 -0.383138D-01
     23  0.960588D-02 -0.635646D-02  0.394023D-02 -0.851388D-03 -0.124455D-01
     24 -0.149090D-01  0.280675D-03  0.694567D-03  0.602403D-02  0.299081D-01
     25  0.359652D-02 -0.343255D-01  0.235745D-02 -0.300849D-01 -0.685836D-01
     26  0.149734D-02  0.224620D-02 -0.175627D-01  0.447184D-02  0.490871D-02
     27  0.293277D-02  0.113340D-01 -0.165339D-02 -0.675904D-01 -0.244125D-01
               11            12            13            14            15 
     11  0.136649D+00
     12 -0.297193D-03  0.223224D+00
     13 -0.130555D-02 -0.733414D-03  0.129572D+00
     14  0.326574D-02  0.716331D-02  0.151720D-01  0.130192D+00
     15 -0.101650D-02 -0.483060D-02 -0.214507D-02 -0.283498D-01  0.167999D+00
     16 -0.220067D-01 -0.257849D-02  0.444299D-02 -0.530030D-02  0.353259D-02
     17 -0.297471D-01  0.115715D-01 -0.669048D-03 -0.124524D-02  0.825386D-02
     18 -0.140869D-01 -0.288350D-01 -0.192924D-02  0.251997D-02  0.788286D-03
     19  0.298753D-03 -0.251305D-02 -0.161245D-01 -0.838215D-02 -0.378239D-02
     20  0.339996D-02 -0.712410D-02 -0.877849D-04 -0.515532D-01 -0.187409D-01
     21  0.179802D-02 -0.432008D-02  0.694720D-03  0.183297D-01 -0.308037D-01
     22 -0.240902D-02 -0.558459D-02 -0.507085D-01 -0.631883D-02 -0.478047D-02
     23 -0.258484D-01  0.114922D-01  0.630544D-02 -0.233843D-01  0.109807D-01
     24  0.262253D-01 -0.636770D-01 -0.392637D-01  0.489568D-02 -0.428161D-01
     25  0.586202D-02  0.214344D-01  0.468639D-02 -0.347132D-03  0.713017D-02
     26 -0.255936D-01 -0.294972D-02  0.288324D-02  0.525525D-02  0.123397D-02
     27  0.269939D-02 -0.395162D-01  0.204977D-02  0.599620D-02 -0.318172D-02
               16            17            18            19            20 
     16  0.151023D+00
     17  0.221926D-01  0.213278D+00
     18 -0.225818D-01 -0.658432D-02  0.149148D+00
     19 -0.157585D-01 -0.214564D-02  0.173494D-01  0.922113D-01
     20 -0.790386D-02 -0.294835D-01  0.235443D-01 -0.779347D-02  0.122147D+00
     21  0.317681D-02 -0.114828D-01 -0.471659D-01  0.427588D-02  0.253175D-01
     22 -0.541942D-03 -0.915040D-02  0.418283D-02 -0.149296D-02 -0.511477D-02
     23 -0.168151D-02 -0.188221D-03  0.397538D-02 -0.616999D-02  0.121357D-02
     24 -0.133805D-02  0.712677D-03  0.429015D-02 -0.151655D-02 -0.529986D-02
     25 -0.273306D-01 -0.763905D-02  0.799814D-02  0.376269D-02  0.885032D-03
     26  0.201538D-01 -0.701016D-01 -0.378222D-01 -0.228827D-02  0.583705D-02
     27  0.159961D-01 -0.337527D-02 -0.415129D-01  0.106658D-03 -0.631101D-02
               21            22            23            24            25 
     21  0.149955D+00
     22 -0.628559D-03  0.178300D+00
     23 -0.522675D-02  0.141446D-01  0.134304D+00
     24 -0.493119D-04 -0.946004D-02 -0.197488D-01  0.128963D+00
     25  0.579438D-02 -0.212345D-02 -0.508463D-02  0.290531D-02  0.150996D+00
     26 -0.346459D-02 -0.198375D-02  0.630472D-02 -0.280487D-02 -0.646055D-02
     27 -0.251263D-02  0.875658D-02  0.370104D-03  0.271364D-02 -0.328509D-01
               26            27 
     26  0.141807D+00
     27  0.138355D-01  0.182961D+00
 Leave Link  716 at Thu Mar  8 11:29:17 2018, MaxMem=   536870912 cpu:         0.1
 (Enter /share/apps//mg09/l103.exe)

 GradGradGradGradGradGradGradGradGradGradGradGradGradGradGradGradGradGrad
 Berny optimization.
 Search for a local minimum.
 Step number   1 out of a maximum of  100
 All quantities printed in internal units (Hartrees-Bohrs-Radians)
 Second derivative matrix not updated -- first step.
 ITU=  0
     Eigenvalues ---    0.08038   0.11949   0.12307   0.12713   0.13122
     Eigenvalues ---    0.13952   0.14901   0.14974   0.16019   0.16597
     Eigenvalues ---    0.17694   0.21565   0.22444   0.24036   0.24308
     Eigenvalues ---    0.25541   0.26980   0.28414   0.29289   0.30026
     Eigenvalues ---    0.31921
 RFO step:  Lambda=-7.80946989D-03 EMin= 8.03786987D-02
 Linear search not attempted -- first point.
 TrRot=  0.000078 -0.000566 -0.000991  0.345938  0.000071 -0.345933
 MatCor failed.
 Variable       Old X    -DE/DX   Delta X   Delta X   Delta X     New X
                                 (Linear)    (Quad)   (Total)
    X1       -0.69750   0.00094   0.00000   0.00517   0.00532  -0.69218
    Y1        4.98686  -0.01388   0.00000  -0.07872  -0.07925   4.90761
    Z1        1.42675  -0.00296   0.00000  -0.01954  -0.02060   1.40615
    X2        3.44715  -0.00537   0.00000  -0.04207  -0.04198   3.40517
    Y2       -3.15172   0.00549   0.00000   0.04143   0.04088  -3.11084
    Z2       -0.02021   0.00089   0.00000   0.00603   0.00489  -0.01532
    X3       -4.33294   0.01022   0.00000   0.05490   0.05488  -4.27806
    Y3        1.10900   0.00044   0.00000  -0.00607  -0.00669   1.10231
    Z3       -1.26508   0.00236   0.00000   0.02089   0.02016  -1.24492
    X4        1.96484  -0.00906   0.00000  -0.04736  -0.04701   1.91784
    Y4        0.28864   0.00250   0.00000   0.01317   0.01271   0.30135
    Z4        4.23336  -0.01019   0.00000  -0.05660  -0.05773   4.17564
    X5        0.00651  -0.00200   0.00000  -0.00793  -0.00813  -0.00161
    Y5        3.09088  -0.00682   0.00000  -0.04318  -0.04384   3.04704
    Z5       -3.93766   0.01122   0.00000   0.07000   0.06894  -3.86873
    X6       -2.03004   0.00288   0.00000   0.01991   0.02011  -2.00993
    Y6       -3.64733   0.00843   0.00000   0.05149   0.05095  -3.59638
    Z6        1.51823  -0.00100   0.00000  -0.01668  -0.01745   1.50078
    X7       -0.60200   0.00072   0.00000   0.01426   0.01408  -0.58792
    Y7       -2.43663   0.00801   0.00000   0.05905   0.05838  -2.37825
    Z7       -4.17181   0.00847   0.00000   0.05986   0.05897  -4.11284
    X8        4.14728  -0.00947   0.00000  -0.05975  -0.05971   4.08757
    Y8        2.49758  -0.00333   0.00000  -0.03155  -0.03210   2.46548
    Z8       -0.32185   0.00133   0.00000   0.00311   0.00178  -0.32007
    X9       -3.13495   0.01112   0.00000   0.06208   0.06243  -3.07252
    Y9        0.91624  -0.00086   0.00000  -0.00056  -0.00104   0.91519
    Z9        4.22408  -0.01011   0.00000  -0.05815  -0.05896   4.16512
         Item               Value     Threshold  Converged?
 Maximum Force            0.013881     0.000450     NO 
 RMS     Force            0.006904     0.000300     NO 
 Maximum Displacement     0.079252     0.001800     NO 
 RMS     Displacement     0.042366     0.001200     NO 
 Predicted change in Energy=-4.094021D-03
 Lowest energy point so far.  Saving SCF results.
 GradGradGradGradGradGradGradGradGradGradGradGradGradGradGradGradGradGrad

 Leave Link  103 at Thu Mar  8 11:29:17 2018, MaxMem=   536870912 cpu:         0.3
 (Enter /share/apps//mg09/l202.exe)
                          Input orientation:                          
 ---------------------------------------------------------------------
 Center     Atomic      Atomic             Coordinates (Angstroms)
 Number     Number       Type             X           Y           Z
 ---------------------------------------------------------------------
      1         50           0       -0.366286    2.596996    0.744102
      2         83           0        1.801936   -1.646188   -0.008105
      3         83           0       -2.263852    0.583315   -0.658786
      4         32           0        1.014876    0.159466    2.209651
      5         32           0       -0.000853    1.612426   -2.047242
      6         83           0       -1.063609   -1.903121    0.794176
      7         50           0       -0.311116   -1.258516   -2.176422
      8         83           0        2.163051    1.304674   -0.169373
      9         32           0       -1.625906    0.484300    2.204086
 ---------------------------------------------------------------------
                    Distance matrix (angstroms):
                    1          2          3          4          5
     1  Sn   0.000000
     2  Bi   4.824066   0.000000
     3  Bi   3.102218   4.682382   0.000000
     4  Ge   3.161802   2.966192   4.376944   0.000000
     5  Ge   2.982368   4.245785   2.847463   4.611284   0.000000
     6  Bi   4.554099   2.986807   3.119944   3.252374   4.643510
     7  Sn   4.837093   3.052356   3.083624   4.796516   2.890546
     8  Bi   2.983636   2.977247   4.511913   2.879160   2.881594
     9  Ge   2.860364   4.602485   2.934760   2.660691   4.689058
                    6          7          8          9
     6  Bi   0.000000
     7  Sn   3.131488   0.000000
     8  Bi   4.650776   4.088972   0.000000
     9  Ge   2.829099   4.894377   4.545605   0.000000
 Stoichiometry    Bi4Ge3Sn2
 Framework group  C1[X(Bi4Ge3Sn2)]
 Deg. of freedom    21
 Full point group                 C1      NOp   1
 RotChk:  IX=0 Diff= 2.26D-02
 Largest Abelian subgroup         C1      NOp   1
 Largest concise Abelian subgroup C1      NOp   1
                         Standard orientation:                         
 ---------------------------------------------------------------------
 Center     Atomic      Atomic             Coordinates (Angstroms)
 Number     Number       Type             X           Y           Z
 ---------------------------------------------------------------------
      1         50           0        0.406650    2.586378   -0.750281
      2         83           0       -1.828537   -1.620076    0.012146
      3         83           0        2.270924    0.547492    0.660811
      4         32           0       -1.010874    0.166351   -2.210106
      5         32           0        0.022780    1.616063    2.043579
      6         83           0        1.033518   -1.924229   -0.786072
      7         50           0        0.287934   -1.258980    2.181716
      8         83           0       -2.143607    1.336547    0.164157
      9         32           0        1.634660    0.449843   -2.202482
 ---------------------------------------------------------------------
 Rotational constants (GHZ):      0.1047414      0.0982471      0.0814309
 Leave Link  202 at Thu Mar  8 11:29:18 2018, MaxMem=   536870912 cpu:         0.0
 (Enter /share/apps//mg09/l301.exe)
 Standard basis: def2TZVP (5D, 7F)
 Ernie: Thresh=  0.10000D-02 Tol=  0.10000D-05 Strict=F.
 There are   519 symmetry adapted cartesian basis functions of A   symmetry.
 There are   444 symmetry adapted basis functions of A   symmetry.
   444 basis functions,   963 primitive gaussians,   519 cartesian basis functions
   116 alpha electrons      116 beta electrons
       nuclear repulsion energy      3584.2738574245 Hartrees.
 IExCor= 1009 DFT=T Ex+Corr=PBE1PBE ExCW=0 ScaHFX=  0.250000
 ScaDFX=  0.750000  0.750000  1.000000  1.000000 ScalE2=  1.000000  1.000000
 IRadAn=      0 IRanWt=     -1 IRanGd=            0 ICorTp=0 IEmpDi=  4
 NAtoms=    9 NActive=    9 NUniq=    9 SFac= 1.00D+00 NAtFMM=   60 NAOKFM=F Big=F
 Integral buffers will be    131072 words long.
 Raffenetti 2 integral format.
 Two-electron integral symmetry is turned on.
 Leave Link  301 at Thu Mar  8 11:29:19 2018, MaxMem=   536870912 cpu:         0.3
 (Enter /share/apps//mg09/l302.exe)
 NPDir=0 NMtPBC=     1 NCelOv=     1 NCel=       1 NClECP=     1 NCelD=      1
         NCelK=      1 NCelE2=     1 NClLst=     1 CellRange=     0.0.
 One-electron integrals computed using PRISM.
   1 Symmetry operations used in ECPInt.
 ECPInt:  NShTT=   10440 NPrTT=   41973 LenC2=    9685 LenP2D=   27663.
 LDataN:  DoStor=T MaxTD1= 8 Len=  415
 NBasis=   444 RedAO= T EigKep=  1.39D-03  NBF=   444
 NBsUse=   444 1.00D-06 EigRej= -1.00D+00 NBFU=   444
 Precomputing XC quadrature grid using
 IXCGrd= 4 IRadAn=           0 IRanWt=          -1 IRanGd=           0 AccXCQ= 0.00D+00.
 Defaulting to unpruned grid for atomic number  50.
 Defaulting to unpruned grid for atomic number  50.
 Defaulting to unpruned grid for atomic number  83.
 Generated NRdTot=       0 NPtTot=           0 NUsed=           0 NTot=          32
 NSgBfM=   508   508   508   508   508 MxSgAt=     9 MxSgA2=     9.
 Leave Link  302 at Thu Mar  8 11:29:30 2018, MaxMem=   536870912 cpu:        41.4
 (Enter /share/apps//mg09/l303.exe)
 DipDrv:  MaxL=1.
 Leave Link  303 at Thu Mar  8 11:29:31 2018, MaxMem=   536870912 cpu:         0.4
 (Enter /share/apps//mg09/l401.exe)
 Initial guess from the checkpoint file:  "Isomer_43.chk"
 B after Tr=     0.000000    0.000000    0.000000
         Rot=    0.999969    0.001590    0.000560    0.007747 Ang=   0.91 deg.
 Guess basis will be translated and rotated to current coordinates.
 JPrj=2 DoOrth=T DoCkMO=T.
 Generating alternative initial guess.
 ExpMin= 4.62D-02 ExpMax= 4.66D+05 ExpMxC= 4.50D+03 IAcc=2 IRadAn=         4 AccDes= 0.00D+00
 Harris functional with IExCor= 1009 and IRadAn=       4 diagonalized for initial guess.
 HarFok:  IExCor= 1009 AccDes= 0.00D+00 IRadAn=         4 IDoV= 1 UseB2=F ITyADJ=14
 ICtDFT=  3500011 ScaDFX=  1.000000  1.000000  1.000000  1.000000
 Defaulting to unpruned grid for atomic number  50.
 Defaulting to unpruned grid for atomic number  50.
 Defaulting to unpruned grid for atomic number  50.
 Defaulting to unpruned grid for atomic number  50.
 FoFCou: FMM=F IPFlag=           0 FMFlag=      100000 FMFlg1=           0
         NFxFlg=           0 DoJE=T BraDBF=F KetDBF=T FulRan=T
         wScrn=  0.000000 ICntrl=     500 IOpCl=  0 I1Cent=   200000004 NGrid=           0
         NMat0=    1 NMatS0=      1 NMatT0=    0 NMatD0=    1 NMtDS0=    0 NMtDT0=    0
 Petite list used in FoFCou.
 Harris En= -7518.61157508099    
 Leave Link  401 at Thu Mar  8 11:29:35 2018, MaxMem=   536870912 cpu:        14.1
 (Enter /share/apps//mg09/l502.exe)
 Closed shell SCF:
 Using DIIS extrapolation, IDIIS=  1040.
 Integral symmetry usage will be decided dynamically.
 IVT=     1410107 IEndB=     1410107 NGot=   536870912 MDV=   536322046
 LenX=   536322046 LenY=   536052166
 Requested convergence on RMS density matrix=1.00D-08 within 768 cycles.
 Requested convergence on MAX density matrix=1.00D-06.
 Requested convergence on             energy=1.00D-06.
 No special actions if energy rises.
 Fock matrices will be formed incrementally for  20 cycles.

 Cycle   1  Pass 1  IDiag  1:
 FoFJK:  IHMeth= 1 ICntrl=       0 DoSepK=F KAlg= 0 I1Cent=   0 FoldK=F
 IRaf= 880000000 NMat=   1 IRICut=       1 DoRegI=T DoRafI=F ISym2E= 0.
 FoFCou: FMM=F IPFlag=           0 FMFlag=      100000 FMFlg1=           0
         NFxFlg=           0 DoJE=F BraDBF=F KetDBF=F FulRan=T
         wScrn=  0.000000 ICntrl=       0 IOpCl=  0 I1Cent=           0 NGrid=           0
         NMat0=    1 NMatS0=      1 NMatT0=    0 NMatD0=    1 NMtDS0=    0 NMtDT0=    0
 Symmetry not used in FoFCou.
 Defaulting to unpruned grid for atomic number  50.
 Defaulting to unpruned grid for atomic number  50.
 Defaulting to unpruned grid for atomic number  50.
 Defaulting to unpruned grid for atomic number  50.
 E= -7517.81270267482    
 DIIS: error= 5.53D-03 at cycle   1 NSaved=   1.
 NSaved= 1 IEnMin= 1 EnMin= -7517.81270267482     IErMin= 1 ErrMin= 5.53D-03
 ErrMax= 5.53D-03  0.00D+00 EMaxC= 1.00D-01 BMatC= 8.38D-03 BMatP= 8.38D-03
 IDIUse=3 WtCom= 9.45D-01 WtEn= 5.53D-02
 Coeff-Com:  0.100D+01
 Coeff-En:   0.100D+01
 Coeff:      0.100D+01
 Gap=     7.937 Goal=   None    Shift=    0.000
 GapD=    7.937 DampG=2.000 DampE=1.000 DampFc=2.0000 IDamp=-1.
 RMSDP=1.74D-04 MaxDP=4.25D-03              OVMax= 1.86D-02

 Cycle   2  Pass 1  IDiag  1:
 RMSU=  1.73D-04    CP:  1.00D+00
 E= -7517.81277258316     Delta-E=       -0.000069908339 Rises=F Damp=F
 DIIS: error= 1.54D-03 at cycle   2 NSaved=   2.
 NSaved= 2 IEnMin= 2 EnMin= -7517.81277258316     IErMin= 2 ErrMin= 1.54D-03
 ErrMax= 1.54D-03  0.00D+00 EMaxC= 1.00D-01 BMatC= 1.50D-03 BMatP= 8.38D-03
 IDIUse=3 WtCom= 9.85D-01 WtEn= 1.54D-02
 Coeff-Com:  0.190D+00 0.810D+00
 Coeff-En:   0.479D+00 0.521D+00
 Coeff:      0.194D+00 0.806D+00
 Gap=     0.118 Goal=   None    Shift=    0.000
 RMSDP=2.00D-04 MaxDP=8.79D-03 DE=-6.99D-05 OVMax= 1.52D-02

 Cycle   3  Pass 1  IDiag  1:
 RMSU=  1.81D-04    CP:  9.99D-01  5.31D-01
 E= -7517.81108634429     Delta-E=        0.001686238864 Rises=F Damp=F
 DIIS: error= 2.27D-03 at cycle   3 NSaved=   3.
 NSaved= 3 IEnMin= 2 EnMin= -7517.81277258316     IErMin= 2 ErrMin= 1.54D-03
 ErrMax= 2.27D-03  0.00D+00 EMaxC= 1.00D-01 BMatC= 3.52D-03 BMatP= 1.50D-03
 IDIUse=3 WtCom= 1.74D-01 WtEn= 8.26D-01
 Coeff-Com:  0.515D-02 0.604D+00 0.390D+00
 Coeff-En:   0.000D+00 0.662D+00 0.338D+00
 Coeff:      0.894D-03 0.652D+00 0.347D+00
 Gap=     0.119 Goal=   None    Shift=    0.000
 RMSDP=1.11D-04 MaxDP=5.39D-03 DE= 1.69D-03 OVMax= 1.15D-02

 Cycle   4  Pass 1  IDiag  1:
 RMSU=  3.88D-05    CP:  9.99D-01  8.02D-01  4.94D-01
 E= -7517.81378236579     Delta-E=       -0.002696021495 Rises=F Damp=F
 DIIS: error= 4.34D-04 at cycle   4 NSaved=   4.
 NSaved= 4 IEnMin= 4 EnMin= -7517.81378236579     IErMin= 4 ErrMin= 4.34D-04
 ErrMax= 4.34D-04  0.00D+00 EMaxC= 1.00D-01 BMatC= 1.73D-04 BMatP= 1.50D-03
 IDIUse=3 WtCom= 9.96D-01 WtEn= 4.34D-03
 Coeff-Com: -0.112D-04 0.435D+00 0.237D+00 0.328D+00
 Coeff-En:   0.000D+00 0.763D-01 0.000D+00 0.924D+00
 Coeff:     -0.111D-04 0.433D+00 0.236D+00 0.331D+00
 Gap=     0.119 Goal=   None    Shift=    0.000
 RMSDP=3.58D-05 MaxDP=1.75D-03 DE=-2.70D-03 OVMax= 4.05D-03

 Cycle   5  Pass 1  IDiag  1:
 RMSU=  1.42D-05    CP:  9.99D-01  8.53D-01  4.48D-01  2.17D-01
 E= -7517.81392189247     Delta-E=       -0.000139526681 Rises=F Damp=F
 DIIS: error= 9.90D-05 at cycle   5 NSaved=   5.
 NSaved= 5 IEnMin= 5 EnMin= -7517.81392189247     IErMin= 5 ErrMin= 9.90D-05
 ErrMax= 9.90D-05  0.00D+00 EMaxC= 1.00D-01 BMatC= 1.69D-05 BMatP= 1.73D-04
 IDIUse=1 WtCom= 1.00D+00 WtEn= 0.00D+00
 Coeff-Com: -0.891D-03 0.222D+00 0.108D+00 0.262D+00 0.409D+00
 Coeff:     -0.891D-03 0.222D+00 0.108D+00 0.262D+00 0.409D+00
 Gap=     0.119 Goal=   None    Shift=    0.000
 RMSDP=1.09D-05 MaxDP=5.55D-04 DE=-1.40D-04 OVMax= 1.44D-03

 Cycle   6  Pass 1  IDiag  1:
 RMSU=  4.42D-06    CP:  9.99D-01  8.62D-01  4.41D-01  4.02D-01  5.56D-01
 E= -7517.81394045482     Delta-E=       -0.000018562350 Rises=F Damp=F
 DIIS: error= 2.25D-05 at cycle   6 NSaved=   6.
 NSaved= 6 IEnMin= 6 EnMin= -7517.81394045482     IErMin= 6 ErrMin= 2.25D-05
 ErrMax= 2.25D-05  0.00D+00 EMaxC= 1.00D-01 BMatC= 7.37D-07 BMatP= 1.69D-05
 IDIUse=1 WtCom= 1.00D+00 WtEn= 0.00D+00
 Coeff-Com: -0.539D-03 0.109D+00 0.524D-01 0.140D+00 0.254D+00 0.446D+00
 Coeff:     -0.539D-03 0.109D+00 0.524D-01 0.140D+00 0.254D+00 0.446D+00
 Gap=     0.119 Goal=   None    Shift=    0.000
 RMSDP=3.81D-06 MaxDP=1.32D-04 DE=-1.86D-05 OVMax= 5.17D-04

 Cycle   7  Pass 1  IDiag  1:
 RMSU=  2.88D-06    CP:  9.99D-01  8.65D-01  4.42D-01  4.10D-01  6.23D-01
                    CP:  4.95D-01
 E= -7517.81394071010     Delta-E=       -0.000000255277 Rises=F Damp=F
 DIIS: error= 2.16D-05 at cycle   7 NSaved=   7.
 NSaved= 7 IEnMin= 7 EnMin= -7517.81394071010     IErMin= 7 ErrMin= 2.16D-05
 ErrMax= 2.16D-05  0.00D+00 EMaxC= 1.00D-01 BMatC= 5.11D-07 BMatP= 7.37D-07
 IDIUse=1 WtCom= 1.00D+00 WtEn= 0.00D+00
 Coeff-Com: -0.172D-03 0.173D-01 0.869D-02 0.328D-01 0.858D-01 0.431D+00
 Coeff-Com:  0.424D+00
 Coeff:     -0.172D-03 0.173D-01 0.869D-02 0.328D-01 0.858D-01 0.431D+00
 Coeff:      0.424D+00
 Gap=     0.119 Goal=   None    Shift=    0.000
 RMSDP=2.21D-06 MaxDP=9.15D-05 DE=-2.55D-07 OVMax= 2.94D-04

 Cycle   8  Pass 1  IDiag  1:
 RMSU=  9.20D-07    CP:  9.99D-01  8.67D-01  4.44D-01  4.06D-01  6.38D-01
                    CP:  8.12D-01  5.49D-01
 E= -7517.81394134076     Delta-E=       -0.000000630660 Rises=F Damp=F
 DIIS: error= 4.31D-06 at cycle   8 NSaved=   8.
 NSaved= 8 IEnMin= 8 EnMin= -7517.81394134076     IErMin= 8 ErrMin= 4.31D-06
 ErrMax= 4.31D-06  0.00D+00 EMaxC= 1.00D-01 BMatC= 4.54D-08 BMatP= 5.11D-07
 IDIUse=1 WtCom= 1.00D+00 WtEn= 0.00D+00
 Coeff-Com:  0.806D-06-0.133D-01-0.566D-02-0.805D-02 0.243D-02 0.207D+00
 Coeff-Com:  0.287D+00 0.531D+00
 Coeff:      0.806D-06-0.133D-01-0.566D-02-0.805D-02 0.243D-02 0.207D+00
 Coeff:      0.287D+00 0.531D+00
 Gap=     0.119 Goal=   None    Shift=    0.000
 RMSDP=6.40D-07 MaxDP=4.90D-05 DE=-6.31D-07 OVMax= 7.48D-05

 Cycle   9  Pass 1  IDiag  1:
 RMSU=  2.66D-07    CP:  9.99D-01  8.67D-01  4.46D-01  4.09D-01  6.47D-01
                    CP:  8.40D-01  6.57D-01  5.85D-01
 E= -7517.81394138330     Delta-E=       -0.000000042544 Rises=F Damp=F
 DIIS: error= 1.32D-06 at cycle   9 NSaved=   9.
 NSaved= 9 IEnMin= 9 EnMin= -7517.81394138330     IErMin= 9 ErrMin= 1.32D-06
 ErrMax= 1.32D-06  0.00D+00 EMaxC= 1.00D-01 BMatC= 3.36D-09 BMatP= 4.54D-08
 IDIUse=1 WtCom= 1.00D+00 WtEn= 0.00D+00
 Coeff-Com:  0.199D-04-0.950D-02-0.405D-02-0.801D-02-0.909D-02 0.730D-01
 Coeff-Com:  0.119D+00 0.302D+00 0.537D+00
 Coeff:      0.199D-04-0.950D-02-0.405D-02-0.801D-02-0.909D-02 0.730D-01
 Coeff:      0.119D+00 0.302D+00 0.537D+00
 Gap=     0.119 Goal=   None    Shift=    0.000
 RMSDP=1.76D-07 MaxDP=1.17D-05 DE=-4.25D-08 OVMax= 2.72D-05

 Cycle  10  Pass 1  IDiag  1:
 RMSU=  9.21D-08    CP:  9.99D-01  8.67D-01  4.46D-01  4.11D-01  6.51D-01
                    CP:  8.45D-01  6.55D-01  6.72D-01  8.41D-01
 E= -7517.81394138660     Delta-E=       -0.000000003301 Rises=F Damp=F
 DIIS: error= 1.79D-07 at cycle  10 NSaved=  10.
 NSaved=10 IEnMin=10 EnMin= -7517.81394138660     IErMin=10 ErrMin= 1.79D-07
 ErrMax= 1.79D-07  0.00D+00 EMaxC= 1.00D-01 BMatC= 7.43D-11 BMatP= 3.36D-09
 IDIUse=1 WtCom= 1.00D+00 WtEn= 0.00D+00
 Coeff-Com:  0.319D-05-0.692D-03-0.232D-03-0.782D-03-0.225D-02-0.309D-02
 Coeff-Com: -0.164D-03 0.142D-01 0.122D+00 0.871D+00
 Coeff:      0.319D-05-0.692D-03-0.232D-03-0.782D-03-0.225D-02-0.309D-02
 Coeff:     -0.164D-03 0.142D-01 0.122D+00 0.871D+00
 Gap=     0.119 Goal=   None    Shift=    0.000
 RMSDP=5.58D-08 MaxDP=3.16D-06 DE=-3.30D-09 OVMax= 1.01D-05

 Cycle  11  Pass 1  IDiag  1:
 RMSU=  3.27D-08    CP:  9.99D-01  8.67D-01  4.46D-01  4.11D-01  6.52D-01
                    CP:  8.50D-01  6.62D-01  6.79D-01  9.25D-01  1.11D+00
 E= -7517.81394138613     Delta-E=        0.000000000473 Rises=F Damp=F
 DIIS: error= 1.10D-07 at cycle  11 NSaved=  11.
 NSaved=11 IEnMin=10 EnMin= -7517.81394138660     IErMin=11 ErrMin= 1.10D-07
 ErrMax= 1.10D-07  0.00D+00 EMaxC= 1.00D-01 BMatC= 2.34D-11 BMatP= 7.43D-11
 IDIUse=1 WtCom= 1.00D+00 WtEn= 0.00D+00
 Coeff-Com: -0.355D-06 0.566D-03 0.280D-03 0.355D-03-0.220D-03-0.823D-02
 Coeff-Com: -0.119D-01-0.214D-01 0.111D-01 0.481D+00 0.548D+00
 Coeff:     -0.355D-06 0.566D-03 0.280D-03 0.355D-03-0.220D-03-0.823D-02
 Coeff:     -0.119D-01-0.214D-01 0.111D-01 0.481D+00 0.548D+00
 Gap=     0.119 Goal=   None    Shift=    0.000
 RMSDP=2.17D-08 MaxDP=1.33D-06 DE= 4.73D-10 OVMax= 3.33D-06

 Cycle  12  Pass 1  IDiag  1:
 RMSU=  1.31D-08    CP:  9.99D-01  8.67D-01  4.46D-01  4.11D-01  6.52D-01
                    CP:  8.51D-01  6.63D-01  6.81D-01  9.47D-01  1.20D+00
                    CP:  6.39D-01
 E= -7517.81394138665     Delta-E=       -0.000000000515 Rises=F Damp=F
 DIIS: error= 6.73D-08 at cycle  12 NSaved=  12.
 NSaved=12 IEnMin=12 EnMin= -7517.81394138665     IErMin=12 ErrMin= 6.73D-08
 ErrMax= 6.73D-08  0.00D+00 EMaxC= 1.00D-01 BMatC= 5.78D-12 BMatP= 2.34D-11
 IDIUse=1 WtCom= 1.00D+00 WtEn= 0.00D+00
 Coeff-Com: -0.629D-06 0.477D-03 0.222D-03 0.340D-03 0.138D-03-0.527D-02
 Coeff-Com: -0.840D-02-0.164D-01-0.756D-02 0.226D+00 0.375D+00 0.436D+00
 Coeff:     -0.629D-06 0.477D-03 0.222D-03 0.340D-03 0.138D-03-0.527D-02
 Coeff:     -0.840D-02-0.164D-01-0.756D-02 0.226D+00 0.375D+00 0.436D+00
 Gap=     0.119 Goal=   None    Shift=    0.000
 RMSDP=9.70D-09 MaxDP=4.88D-07 DE=-5.15D-10 OVMax= 1.22D-06

 SCF Done:  E(RPBE1PBE) =  -7517.81394139     A.U. after   12 cycles
            NFock= 12  Conv=0.97D-08     -V/T= 2.1284
 KE= 6.662179441150D+03 PE=-2.475996430859D+04 EE= 6.995697068626D+03
 Leave Link  502 at Thu Mar  8 11:40:50 2018, MaxMem=   536870912 cpu:      2540.4
 (Enter /share/apps//mg09/l701.exe)
 Compute integral first derivatives.
 ... and contract with generalized density number  0.
   1 Symmetry operations used in ECPInt.
 ECPInt:  NShTT=   10440 NPrTT=   41973 LenC2=    9685 LenP2D=   27663.
 LDataN:  DoStor=T MaxTD1= 9 Len=  602
 Leave Link  701 at Thu Mar  8 11:41:15 2018, MaxMem=   536870912 cpu:        89.4
 (Enter /share/apps//mg09/l702.exe)
 L702 exits ... SP integral derivatives will be done elsewhere.
 Leave Link  702 at Thu Mar  8 11:41:15 2018, MaxMem=   536870912 cpu:         0.1
 (Enter /share/apps//mg09/l703.exe)
 Compute integral first derivatives, UseDBF=F ICtDFT=           0.
 Integral derivatives from FoFJK, PRISM(SPDF).
 Calling FoFJK, ICntrl=      2127 FMM=F ISym2X=0 I1Cent= 0 IOpClX= 0 NMat=1 NMatS=1 NMatT=0.
 FoFJK:  IHMeth= 1 ICntrl=    2127 DoSepK=F KAlg= 0 I1Cent=   0 FoldK=F
 IRaf=         0 NMat=   1 IRICut=       1 DoRegI=T DoRafI=F ISym2E= 0.
 FoFCou: FMM=F IPFlag=           0 FMFlag=      100000 FMFlg1=         800
         NFxFlg=           0 DoJE=F BraDBF=F KetDBF=F FulRan=T
         wScrn=  0.000000 ICntrl=    2127 IOpCl=  0 I1Cent=           0 NGrid=           0
         NMat0=    1 NMatS0=      1 NMatT0=    0 NMatD0=    1 NMtDS0=    0 NMtDT0=    0
 Symmetry not used in FoFCou.
 Defaulting to unpruned grid for atomic number  50.
 Defaulting to unpruned grid for atomic number  50.
 Defaulting to unpruned grid for atomic number  50.
 Defaulting to unpruned grid for atomic number  50.
 Leave Link  703 at Thu Mar  8 11:45:16 2018, MaxMem=   536870912 cpu:       853.7
 (Enter /share/apps//mg09/l716.exe)
 Dipole        =-9.55175718D-02-4.17326318D-01 6.86187105D-02
 ***** Axes restored to original set *****
 -------------------------------------------------------------------
 Center     Atomic                   Forces (Hartrees/Bohr)
 Number     Number              X              Y              Z
 -------------------------------------------------------------------
      1       50           0.000498165   -0.006599917   -0.000872204
      2       83          -0.000344895    0.000186741    0.000719102
      3       83           0.002691391    0.001069307   -0.000134502
      4       32          -0.005778045    0.001809622   -0.005429240
      5       32          -0.001089044   -0.002971486    0.005688143
      6       83           0.000186556    0.002038920    0.001098257
      7       50           0.000354268    0.004166553    0.003094726
      8       83          -0.002756522    0.000328751    0.000119000
      9       32           0.006238125   -0.000028491   -0.004283282
 -------------------------------------------------------------------
 Cartesian Forces:  Max     0.006599917 RMS     0.003100747
 Leave Link  716 at Thu Mar  8 11:45:16 2018, MaxMem=   536870912 cpu:         0.1
 (Enter /share/apps//mg09/l103.exe)

 GradGradGradGradGradGradGradGradGradGradGradGradGradGradGradGradGradGrad
 Berny optimization.
 Search for a local minimum.
 Step number   2 out of a maximum of  100
 All quantities printed in internal units (Hartrees-Bohrs-Radians)
 Update second derivatives using D2CorN and points    1    2
 DE= -5.55D-03 DEPred=-4.09D-03 R= 1.35D+00
 TightC=F SS=  1.41D+00  RLast= 2.20D-01 DXNew= 5.0454D-01 6.6043D-01
 Trust test= 1.35D+00 RLast= 2.20D-01 DXMaxT set to 5.05D-01
 ITU=  1  0
     Eigenvalues ---    0.07820   0.09618   0.11961   0.12360   0.12721
     Eigenvalues ---    0.13357   0.14297   0.14973   0.15624   0.16472
     Eigenvalues ---    0.17668   0.21567   0.22315   0.24026   0.24203
     Eigenvalues ---    0.25471   0.26993   0.28406   0.29264   0.30029
     Eigenvalues ---    0.31917
 RFO step:  Lambda=-3.73418951D-04 EMin= 7.81955569D-02
 Quartic linear search produced a step of  0.60179.
 TrRot= -0.000072  0.000201 -0.000089  0.000005  0.000017  0.000005
 MatCor failed.
 Variable       Old X    -DE/DX   Delta X   Delta X   Delta X     New X
                                 (Linear)    (Quad)   (Total)
    X1       -0.69218   0.00050   0.00320  -0.00067   0.00243  -0.68975
    Y1        4.90761  -0.00660  -0.04769  -0.00697  -0.05447   4.85314
    Z1        1.40615  -0.00087  -0.01240   0.00014  -0.01234   1.39381
    X2        3.40517  -0.00034  -0.02526   0.01282  -0.01249   3.39268
    Y2       -3.11084   0.00019   0.02460  -0.01802   0.00681  -3.10403
    Z2       -0.01532   0.00072   0.00294   0.00719   0.00998  -0.00533
    X3       -4.27806   0.00269   0.03303  -0.00872   0.02420  -4.25386
    Y3        1.10231   0.00107  -0.00403   0.00519   0.00132   1.10363
    Z3       -1.24492  -0.00013   0.01213  -0.00506   0.00705  -1.23787
    X4        1.91784  -0.00578  -0.02829  -0.01046  -0.03876   1.87908
    Y4        0.30135   0.00181   0.00765   0.00508   0.01295   0.31430
    Z4        4.17564  -0.00543  -0.03474  -0.01034  -0.04520   4.13044
    X5       -0.00161  -0.00109  -0.00489  -0.00401  -0.00907  -0.01068
    Y5        3.04704  -0.00297  -0.02638   0.00272  -0.02346   3.02359
    Z5       -3.86873   0.00569   0.04149   0.01052   0.05192  -3.81681
    X6       -2.00993   0.00019   0.01210  -0.00795   0.00415  -2.00578
    Y6       -3.59638   0.00204   0.03066  -0.00856   0.02228  -3.57410
    Z6        1.50078   0.00110  -0.01050   0.00827  -0.00229   1.49849
    X7       -0.58792   0.00035   0.00847   0.00194   0.01029  -0.57763
    Y7       -2.37825   0.00417   0.03513   0.00614   0.04147  -2.33678
    Z7       -4.11284   0.00309   0.03549  -0.00147   0.03394  -4.07890
    X8        4.08757  -0.00276  -0.03593   0.00676  -0.02928   4.05829
    Y8        2.46548   0.00033  -0.01932   0.01052  -0.00856   2.45692
    Z8       -0.32007   0.00012   0.00107  -0.00377  -0.00286  -0.32293
    X9       -3.07252   0.00624   0.03757   0.01096   0.04852  -3.02399
    Y9        0.91519  -0.00003  -0.00063   0.00209   0.00163   0.91683
    Z9        4.16512  -0.00428  -0.03548  -0.00469  -0.04021   4.12491
         Item               Value     Threshold  Converged?
 Maximum Force            0.006600     0.000450     NO 
 RMS     Force            0.003101     0.000300     NO 
 Maximum Displacement     0.054467     0.001800     NO 
 RMS     Displacement     0.026884     0.001200     NO 
 Predicted change in Energy=-1.167186D-03
 Lowest energy point so far.  Saving SCF results.
 GradGradGradGradGradGradGradGradGradGradGradGradGradGradGradGradGradGrad

 Leave Link  103 at Thu Mar  8 11:45:17 2018, MaxMem=   536870912 cpu:         0.7
 (Enter /share/apps//mg09/l202.exe)
                          Input orientation:                          
 ---------------------------------------------------------------------
 Center     Atomic      Atomic             Coordinates (Angstroms)
 Number     Number       Type             X           Y           Z
 ---------------------------------------------------------------------
      1         50           0       -0.365000    2.568173    0.737574
      2         83           0        1.795327   -1.642582   -0.002823
      3         83           0       -2.251045    0.584016   -0.655054
[...]
     X    X                   X X  X                                                                                                 
     X                        X    X                                                                                                 
     X                        X    X                                                                                                 
     X                        X    X                                                                                                 
     X                        X    X                                                                                                 
     X                        X    X                                                                                                 
     X                        X    X                                                                                                 
     X                        X    X                                                                                                 
     X                        X    X                                                                                                 
     X                        X    X                                                                                                 
     X                             X                                                                                                 
     X                             X                                                                                                 
     X                             X                                                                                                 
     X                                                                                                                               
     X                                                                                                                               
 
 ***** Axes restored to original set *****
 -------------------------------------------------------------------
 Center     Atomic                   Forces (Hartrees/Bohr)
 Number     Number              X              Y              Z
 -------------------------------------------------------------------
      1       50           0.000005544   -0.000014126    0.000006634
      2       83          -0.000002385   -0.000000090   -0.000030426
      3       83          -0.000006182    0.000006594   -0.000003280
      4       32          -0.000008142    0.000010564    0.000022963
      5       32           0.000010094    0.000005911    0.000005670
      6       83          -0.000015790    0.000019387    0.000001052
      7       50          -0.000001260   -0.000010866   -0.000010390
      8       83           0.000000846    0.000020645    0.000003531
      9       32           0.000017275   -0.000038020    0.000004246
 -------------------------------------------------------------------
 Cartesian Forces:  Max     0.000038020 RMS     0.000013915
 Force constants in Cartesian coordinates: 
                1             2             3             4             5 
      1  0.414988D-01
      2 -0.331537D-02  0.726642D-01
      3 -0.540845D-03  0.453877D-02  0.469550D-01
      4 -0.151866D-02 -0.151479D-02  0.187163D-02  0.756709D-01
      5  0.339203D-02 -0.545875D-02  0.671817D-03 -0.303170D-02  0.787465D-01
      6  0.316663D-02 -0.578864D-03 -0.183134D-02  0.921114D-02 -0.862494D-02
      7 -0.120931D-01 -0.977941D-02 -0.898066D-02 -0.289388D-02 -0.182371D-03
      8 -0.115833D-01 -0.124311D-01 -0.884407D-02  0.758954D-02  0.274909D-02
      9 -0.107175D-01 -0.754947D-02 -0.380232D-02 -0.649709D-04 -0.144321D-02
     10 -0.615103D-02  0.113357D-01 -0.909627D-02 -0.250598D-03  0.565034D-02
     11  0.123967D-01 -0.149631D-01  0.959677D-02  0.408769D-02 -0.240197D-01
     12 -0.984359D-02  0.567109D-02 -0.690454D-02  0.527094D-04 -0.144353D-01
     13  0.214227D-02  0.623095D-03  0.650796D-03 -0.129399D-02  0.239727D-02
     14  0.633536D-03 -0.349641D-02 -0.431552D-02 -0.890251D-03 -0.237009D-02
     15  0.523476D-03 -0.308093D-02 -0.204598D-01  0.646813D-03  0.486130D-03
     16 -0.121383D-02  0.241589D-02 -0.195690D-02 -0.567676D-01 -0.580832D-02
     17 -0.252079D-02 -0.566854D-02  0.219750D-03 -0.547521D-02 -0.361332D-02
     18 -0.297465D-02 -0.118452D-02 -0.192226D-02 -0.163720D-02  0.474635D-02
     19 -0.383640D-02 -0.691167D-04  0.642536D-03 -0.430747D-02  0.538840D-02
     20 -0.129348D-04 -0.315974D-02 -0.632640D-02  0.311784D-02 -0.466217D-02
     21  0.385171D-05 -0.186157D-03 -0.199260D-02 -0.951340D-02  0.456399D-02
     22 -0.168064D-01  0.900628D-02  0.104108D-01 -0.567689D-02 -0.660444D-02
     23  0.108381D-01 -0.808228D-02 -0.661966D-02 -0.632913D-02 -0.394726D-01
     24  0.118423D-01 -0.503277D-02 -0.344122D-02  0.531859D-03  0.144140D-01
     25 -0.202170D-02 -0.870224D-02  0.699887D-02 -0.296189D-02 -0.120122D-02
     26 -0.982791D-02 -0.194042D-01  0.110785D-01  0.244601D-02 -0.189901D-02
     27  0.854028D-02  0.740285D-02 -0.660099D-02 -0.109857D-02 -0.378787D-03
                6             7             8             9            10 
      6  0.356975D-01
      7 -0.963048D-03  0.788712D-01
      8  0.101689D-02  0.856962D-03  0.607800D-01
      9 -0.284009D-02  0.983947D-02 -0.160248D-01  0.557786D-01
     10 -0.340659D-03 -0.359568D-02 -0.203638D-02 -0.565336D-02  0.552937D-01
     11 -0.142361D-01  0.141554D-02 -0.366530D-02  0.548601D-03 -0.817449D-02
     12 -0.133486D-01 -0.150019D-02 -0.677573D-05 -0.460705D-02  0.637159D-02
     13 -0.238562D-02 -0.266232D-01 -0.138287D-01  0.152070D-01 -0.188116D-03
     14  0.391950D-02 -0.102050D-01 -0.705601D-02  0.106992D-01  0.195237D-02
     15 -0.934474D-03  0.130619D-01  0.116153D-01 -0.128764D-01  0.170655D-02
     16 -0.442147D-03 -0.959868D-02  0.123204D-01 -0.362331D-02 -0.265290D-02
     17  0.487456D-02  0.126408D-01 -0.354909D-01  0.141554D-01  0.104341D-02
     18  0.247626D-02 -0.407193D-02  0.166544D-01 -0.984454D-03 -0.191922D-02
     19 -0.116397D-01 -0.711321D-02  0.734355D-02  0.271487D-02 -0.349222D-04
     20  0.151174D-02  0.551970D-02 -0.183360D-02 -0.364193D-02 -0.270416D-02
     21 -0.179803D-01  0.269922D-02 -0.560331D-02 -0.484440D-02  0.366824D-02
     22  0.455011D-03 -0.746053D-02 -0.914288D-03  0.241437D-02 -0.938481D-02
     23  0.169710D-01  0.409342D-03 -0.491481D-02 -0.130100D-02 -0.265562D-02
     24 -0.914689D-03 -0.227117D-02 -0.180376D-02  0.275592D-02  0.928272D-02
     25  0.293840D-02 -0.949298D-02  0.252276D-03 -0.101165D-01 -0.330356D-01
     26 -0.485371D-02 -0.675519D-03  0.186259D-02  0.455726D-02 -0.441111D-02
     27 -0.324233D-03 -0.781359D-02  0.299612D-02 -0.285798D-01 -0.401958D-02
               11            12            13            14            15 
     11  0.441874D-01
     12  0.272105D-02  0.685828D-01
     13  0.274896D-02 -0.221498D-02  0.568424D-01
     14 -0.105817D-02 -0.198759D-02  0.545608D-03  0.533053D-01
     15  0.157503D-02 -0.432873D-02  0.196567D-02 -0.191296D-01  0.598810D-01
     16 -0.251221D-02  0.110653D-02 -0.105084D-02  0.109614D-02 -0.733263D-03
     17 -0.218653D-02 -0.128988D-03 -0.212527D-02 -0.263631D-02  0.304677D-03
     18 -0.540523D-02 -0.350377D-03  0.152223D-02  0.434493D-02 -0.910018D-03
     19 -0.557450D-02 -0.437985D-02 -0.460734D-03  0.328466D-02  0.202422D-03
     20  0.612105D-04  0.109256D-02  0.330534D-02 -0.316511D-01 -0.176458D-02
     21 -0.318744D-02 -0.595270D-02 -0.347341D-04  0.541850D-03 -0.264214D-02
     22 -0.175969D-02  0.734515D-02 -0.300769D-01  0.513094D-02 -0.154643D-01
     23  0.144505D-02  0.453858D-02  0.873325D-02 -0.306711D-02  0.884213D-02
     24  0.656982D-02 -0.282426D-01 -0.173693D-01  0.743740D-02 -0.134111D-01
     25 -0.262801D-02  0.306264D-02  0.709053D-03 -0.154799D-02 -0.190925D-02
     26  0.199172D-03  0.253538D-02 -0.239961D-02 -0.197007D-02  0.115185D-02
     27  0.181752D-02 -0.484823D-02  0.265897D-02 -0.151016D-02 -0.431830D-02
               16            17            18            19            20 
     16  0.748503D-01
     17  0.234230D-02  0.798451D-01
     18 -0.654700D-02 -0.102548D-01  0.354092D-01
     19 -0.296463D-02 -0.509259D-02  0.113461D-01  0.246767D-01
     20 -0.277602D-02 -0.638767D-02  0.386511D-02 -0.278183D-02  0.505554D-01
     21  0.864146D-02  0.636365D-02 -0.176366D-01 -0.112049D-02  0.746584D-02
     22 -0.118322D-02 -0.619795D-03  0.765005D-03 -0.424263D-02 -0.597135D-02
     23 -0.843280D-02  0.100737D-02  0.105211D-02 -0.776200D-02 -0.464933D-02
     24  0.379758D-03 -0.140270D-02 -0.281972D-02 -0.191244D-02 -0.423132D-02
     25  0.581399D-03 -0.192817D-03  0.351672D-02 -0.171671D-02  0.230341D-02
     26  0.135466D-02 -0.248692D-01 -0.138183D-01  0.526343D-02  0.172705D-02
     27  0.317488D-02 -0.141315D-01 -0.132620D-01  0.414661D-02  0.202898D-02
               21            22            23            24            25 
     21  0.619062D-01
     22 -0.148881D-02  0.786726D-01
     23 -0.619022D-02  0.319584D-02  0.612729D-01
     24 -0.492350D-02 -0.591636D-02 -0.176310D-01  0.554772D-01
     25 -0.285533D-02 -0.384127D-02  0.200303D-02  0.543260D-02  0.517797D-01
     26 -0.376821D-02 -0.146352D-02 -0.353919D-02  0.168041D-02  0.971356D-02
     27 -0.593393D-02  0.147909D-02  0.338142D-03 -0.448021D-02 -0.706811D-02
               26            27 
     26  0.478929D-01
     27  0.143681D-02  0.683477D-01
 Leave Link  716 at Thu Mar  8 15:28:23 2018, MaxMem=   536870912 cpu:         0.1
 (Enter /share/apps//mg09/l103.exe)

 GradGradGradGradGradGradGradGradGradGradGradGradGradGradGradGradGradGrad
 Berny optimization.
 Search for a local minimum.
 Step number   1 out of a maximum of    2
 All quantities printed in internal units (Hartrees-Bohrs-Radians)
 Second derivative matrix not updated -- analytic derivatives used.
 ITU=  0
     Eigenvalues ---    0.00373   0.02334   0.02492   0.03659   0.04395
     Eigenvalues ---    0.04756   0.05286   0.05514   0.05599   0.06077
     Eigenvalues ---    0.06361   0.06740   0.08239   0.09282   0.09558
     Eigenvalues ---    0.11177   0.11650   0.12273   0.13527   0.13986
     Eigenvalues ---    0.14021
 Angle between quadratic step and forces=  36.92 degrees.
 Linear search not attempted -- first point.
 TrRot=  0.000014 -0.000011  0.000006  0.000001 -0.000001  0.000001
 Variable       Old X    -DE/DX   Delta X   Delta X   Delta X     New X
                                 (Linear)    (Quad)   (Total)
    X1       -0.60256   0.00001   0.00000  -0.00016  -0.00015  -0.60272
    Y1        4.76128  -0.00001   0.00000  -0.00012  -0.00014   4.76114
    Z1        1.54532   0.00001   0.00000  -0.00005  -0.00005   1.54528
    X2        3.06096   0.00000   0.00000  -0.00015  -0.00013   3.06083
    Y2       -3.28346   0.00000   0.00000   0.00020   0.00020  -3.28327
    Z2        0.92516  -0.00003   0.00000  -0.00065  -0.00064   0.92452
    X3       -4.36696  -0.00001   0.00000  -0.00002  -0.00001  -4.36697
    Y3        1.15068   0.00001   0.00000   0.00038   0.00036   1.15104
    Z3       -1.05377   0.00000   0.00000  -0.00005  -0.00005  -1.05382
    X4        2.27520  -0.00001   0.00000  -0.00005  -0.00004   2.27516
    Y4        1.03045   0.00001   0.00000   0.00031   0.00030   1.03075
    Z4        4.12440   0.00002   0.00000   0.00033   0.00033   4.12473
    X5       -0.40446   0.00001   0.00000   0.00033   0.00034  -0.40412
    Y5        3.31223   0.00001   0.00000  -0.00037  -0.00038   3.31185
    Z5       -3.83684   0.00001   0.00000  -0.00022  -0.00021  -3.83705
    X6       -2.51741  -0.00002   0.00000  -0.00034  -0.00032  -2.51773
    Y6       -3.86493   0.00002   0.00000   0.00031   0.00029  -3.86463
    Z6        0.87481   0.00000   0.00000   0.00009   0.00010   0.87490
    X7        0.14859   0.00000   0.00000  -0.00013  -0.00011   0.14848
    Y7       -1.97498  -0.00001   0.00000  -0.00053  -0.00054  -1.97552
    Z7       -3.99245  -0.00001   0.00000  -0.00005  -0.00005  -3.99250
    X8        3.86978   0.00000   0.00000   0.00005   0.00006   3.86984
    Y8        2.00892   0.00002   0.00000   0.00049   0.00048   2.00941
    Z8       -0.98129   0.00000   0.00000   0.00035   0.00036  -0.98092
    X9       -2.69478   0.00002   0.00000   0.00035   0.00036  -2.69443
    Y9        0.51332  -0.00004   0.00000  -0.00056  -0.00057   0.51274
    Z9        4.08046   0.00000   0.00000   0.00019   0.00020   4.08066
         Item               Value     Threshold  Converged?
 Maximum Force            0.000038     0.000450     YES
 RMS     Force            0.000014     0.000300     YES
 Maximum Displacement     0.000639     0.001800     YES
 RMS     Displacement     0.000305     0.001200     YES
 Predicted change in Energy=-4.586961D-08
 Optimization completed.
    -- Stationary point found.
 GradGradGradGradGradGradGradGradGradGradGradGradGradGradGradGradGradGrad

 Leave Link  103 at Thu Mar  8 15:28:23 2018, MaxMem=   536870912 cpu:         0.2
 (Enter /share/apps//mg09/l9999.exe)
 1\1\GINC-COMPUTE-0-4\Freq\RPBE1PBE\def2TZVP\Bi4Ge3Sn2\RODRIGO\08-Mar-2
 018\0\\#P Geom=AllCheck Guess=TCheck SCRF=Check GenChk RPBE1PBE/def2TZ
 VP Freq\\01Final_coords.xyz_43\\0,1\Sn,-0.3188635925,2.5195601519,0.81
 77500911\Bi,1.619790288,-1.7375336025,0.4895722101\Bi,-2.3108978172,0.
 6089161846,-0.5576321088\Ge,1.20398476,0.5452898056,2.182535848\Ge,-0.
 2140293011,1.7527579978,-2.0303673045\Bi,-1.332155201,-2.0452313354,0.
 4629280539\Sn,0.078630166,-1.045116511,-2.1127123914\Bi,2.0477986925,1
 .0630749148,-0.5192743177\Ge,-1.4260179939,0.2716353944,2.1592889193\\
 Version=ES64L-G09RevD.01\State=1-A\HF=-7517.8172554\RMSD=3.776e-09\RMS
 F=1.391e-05\ZeroPoint=0.0058005\Thermal=0.0232877\Dipole=0.0580231,-0.
 5169403,-0.4696997\DipoleDeriv=0.0939305,-0.025519,-0.014468,-0.026565
 4,0.3335698,0.1448275,-0.0026873,0.03142,0.0297531,0.0102301,-0.150655
 8,-0.0097394,-0.050248,-0.0729468,-0.0424362,-0.068473,-0.0295589,-0.0
 740861,0.1180114,-0.058716,0.0097189,-0.0514647,-0.0289205,0.0312352,-
 0.0265743,0.0498373,0.0089549,-0.1029293,0.0499405,0.2208371,0.045237,
 -0.1117078,0.0358569,0.0391663,0.0031734,-0.0522497,-0.185405,-0.00979
 29,0.023876,-0.0091149,-0.0777769,-0.245367,0.0158222,-0.1678498,0.005
 8418,-0.0355382,0.1589893,0.0192771,0.0589912,-0.0289137,-0.0383131,0.
 0738799,-0.0120613,-0.0727371,0.0916863,-0.0034026,-0.0109565,-0.00360
 89,0.1178052,0.0958126,-0.0088371,0.0752077,0.2023364,0.0894796,0.0827
 59,-0.0144828,0.0758112,-0.0006038,0.0297908,0.0172681,0.0555634,0.009
 0321,-0.0794653,-0.0436025,-0.2240625,-0.0390376,-0.1305055,-0.0114067
 ,-0.0395648,-0.0057318,-0.0568454\Polar=368.9094173,-2.0728953,388.069
 8046,-0.5853812,5.2647468,372.7370951\PG=C01 [X(Bi4Ge3Sn2)]\NImag=0\\0
 .04149881,-0.00331537,0.07266419,-0.00054084,0.00453877,0.04695503,-0.
 00151866,-0.00151479,0.00187163,0.07567094,0.00339203,-0.00545875,0.00
 067182,-0.00303170,0.07874647,0.00316663,-0.00057886,-0.00183134,0.009
 21114,-0.00862494,0.03569745,-0.01209307,-0.00977941,-0.00898066,-0.00
 289388,-0.00018237,-0.00096305,0.07887120,-0.01158335,-0.01243115,-0.0
 0884407,0.00758954,0.00274909,0.00101689,0.00085696,0.06078005,-0.0107
 1748,-0.00754947,-0.00380232,-0.00006497,-0.00144321,-0.00284009,0.009
 83947,-0.01602482,0.05577859,-0.00615103,0.01133566,-0.00909627,-0.000
 25060,0.00565034,-0.00034066,-0.00359568,-0.00203638,-0.00565336,0.055
 29366,0.01239671,-0.01496313,0.00959677,0.00408769,-0.02401967,-0.0142
 3612,0.00141554,-0.00366530,0.00054860,-0.00817449,0.04418737,-0.00984
 359,0.00567109,-0.00690454,0.00005271,-0.01443532,-0.01334857,-0.00150
 019,-0.00000678,-0.00460705,0.00637159,0.00272105,0.06858284,0.0021422
 7,0.00062309,0.00065080,-0.00129399,0.00239727,-0.00238562,-0.02662317
 ,-0.01382866,0.01520696,-0.00018812,0.00274896,-0.00221498,0.05684239,
 0.00063354,-0.00349641,-0.00431552,-0.00089025,-0.00237009,0.00391950,
 -0.01020501,-0.00705601,0.01069918,0.00195237,-0.00105817,-0.00198759,
 0.00054561,0.05330530,0.00052348,-0.00308093,-0.02045977,0.00064681,0.
 00048613,-0.00093447,0.01306190,0.01161530,-0.01287639,0.00170655,0.00
 157503,-0.00432873,0.00196567,-0.01912960,0.05988098,-0.00121383,0.002
 41589,-0.00195690,-0.05676756,-0.00580832,-0.00044215,-0.00959868,0.01
 232035,-0.00362331,-0.00265290,-0.00251221,0.00110653,-0.00105084,0.00
 109614,-0.00073326,0.07485026,-0.00252079,-0.00566854,0.00021975,-0.00
 547521,-0.00361332,0.00487456,0.01264077,-0.03549086,0.01415538,0.0010
 4341,-0.00218653,-0.00012899,-0.00212527,-0.00263631,0.00030468,0.0023
 4230,0.07984509,-0.00297465,-0.00118452,-0.00192226,-0.00163720,0.0047
 4635,0.00247626,-0.00407193,0.01665442,-0.00098445,-0.00191922,-0.0054
 0523,-0.00035038,0.00152223,0.00434493,-0.00091002,-0.00654700,-0.0102
 5484,0.03540916,-0.00383640,-0.00006912,0.00064254,-0.00430747,0.00538
 840,-0.01163972,-0.00711321,0.00734355,0.00271487,-0.00003492,-0.00557
 450,-0.00437985,-0.00046073,0.00328466,0.00020242,-0.00296463,-0.00509
 259,0.01134606,0.02467671,-0.00001293,-0.00315974,-0.00632640,0.003117
 84,-0.00466217,0.00151174,0.00551970,-0.00183360,-0.00364193,-0.002704
 16,0.00006121,0.00109256,0.00330534,-0.03165113,-0.00176458,-0.0027760
 2,-0.00638767,0.00386511,-0.00278183,0.05055539,0.00000385,-0.00018616
 ,-0.00199260,-0.00951340,0.00456399,-0.01798031,0.00269922,-0.00560331
 ,-0.00484440,0.00366824,-0.00318744,-0.00595270,-0.00003473,0.00054185
 ,-0.00264214,0.00864146,0.00636365,-0.01763661,-0.00112049,0.00746584,
 0.06190619,-0.01680638,0.00900628,0.01041084,-0.00567689,-0.00660444,0
 .00045501,-0.00746053,-0.00091429,0.00241437,-0.00938481,-0.00175969,0
 .00734515,-0.03007686,0.00513094,-0.01546431,-0.00118322,-0.00061980,0
 .00076501,-0.00424263,-0.00597135,-0.00148881,0.07867260,0.01083809,-0
 .00808228,-0.00661966,-0.00632913,-0.03947256,0.01697096,0.00040934,-0
 .00491481,-0.00130100,-0.00265562,0.00144505,0.00453858,0.00873325,-0.
 00306711,0.00884213,-0.00843280,0.00100737,0.00105211,-0.00776200,-0.0
 0464933,-0.00619022,0.00319584,0.06127286,0.01184233,-0.00503277,-0.00
 344122,0.00053186,0.01441397,-0.00091469,-0.00227117,-0.00180376,0.002
 75592,0.00928272,0.00656982,-0.02824265,-0.01736929,0.00743740,-0.0134
 1115,0.00037976,-0.00140270,-0.00281972,-0.00191244,-0.00423132,-0.004
 92350,-0.00591636,-0.01763105,0.05547720,-0.00202170,-0.00870224,0.006
 99887,-0.00296189,-0.00120122,0.00293840,-0.00949298,0.00025228,-0.010
 11654,-0.03303560,-0.00262801,0.00306264,0.00070905,-0.00154799,-0.001
 90925,0.00058140,-0.00019282,0.00351672,-0.00171671,0.00230341,-0.0028
 5533,-0.00384127,0.00200303,0.00543260,0.05177969,-0.00982791,-0.01940
 419,0.01107853,0.00244601,-0.00189901,-0.00485371,-0.00067552,0.001862
 59,0.00455726,-0.00441111,0.00019917,0.00253538,-0.00239961,-0.0019700
 7,0.00115185,0.00135466,-0.02486925,-0.01381833,0.00526343,0.00172705,
 -0.00376821,-0.00146352,-0.00353919,0.00168041,0.00971356,0.04789289,0
 .00854028,0.00740285,-0.00660099,-0.00109857,-0.00037879,-0.00032423,-
 0.00781359,0.00299612,-0.02857979,-0.00401958,0.00181752,-0.00484823,0
 .00265897,-0.00151016,-0.00431830,0.00317488,-0.01413149,-0.01326198,0
 .00414661,0.00202898,-0.00593393,0.00147909,0.00033814,-0.00448021,-0.
 00706811,0.00143681,0.06834766\\-0.00000554,0.00001413,-0.00000663,0.0
 0000239,0.00000009,0.00003043,0.00000618,-0.00000659,0.00000328,0.0000
 0814,-0.00001056,-0.00002296,-0.00001009,-0.00000591,-0.00000567,0.000
 01579,-0.00001939,-0.00000105,0.00000126,0.00001087,0.00001039,-0.0000
 0085,-0.00002065,-0.00000353,-0.00001727,0.00003802,-0.00000425\\\@


 A warm smile is the universal language of kindness.
                             -- William Arthur Ward
 Job cpu time:       0 days  3 hours 43 minutes 58.9 seconds.
 File lengths (MBytes):  RWF=    299 Int=      0 D2E=      0 Chk=     16 Scr=      1
 Normal termination of Gaussian 09 at Thu Mar  8 15:28:25 2018.
