 Entering Gaussian System, Link 0=/share/apps/mg09/g09
 Initial command:
 /share/apps//mg09/l1.exe "/state/partition1/gauss_tmp/Gau-27805.inp" -scrdir="/state/partition1/gauss_tmp/"
 Entering Link 1 = /share/apps//mg09/l1.exe PID=     27807.
  
 Copyright (c) 1988,1990,1992,1993,1995,1998,2003,2009,2013,
            Gaussian, Inc.  All Rights Reserved.
  
 This is part of the Gaussian(R) 09 program.  It is based on
 the Gaussian(R) 03 system (copyright 2003, Gaussian, Inc.),
 the Gaussian(R) 98 system (copyright 1998, Gaussian, Inc.),
 the Gaussian(R) 94 system (copyright 1995, Gaussian, Inc.),
 the Gaussian 92(TM) system (copyright 1992, Gaussian, Inc.),
 the Gaussian 90(TM) system (copyright 1990, Gaussian, Inc.),
 the Gaussian 88(TM) system (copyright 1988, Gaussian, Inc.),
 the Gaussian 86(TM) system (copyright 1986, Carnegie Mellon
 University), and the Gaussian 82(TM) system (copyright 1983,
 Carnegie Mellon University). Gaussian is a federally registered
 trademark of Gaussian, Inc.
  
 This software contains proprietary and confidential information,
 including trade secrets, belonging to Gaussian, Inc.
  
 This software is provided under written license and may be
 used, copied, transmitted, or stored only in accord with that
 written license.
  
 The following legend is applicable only to US Government
 contracts under FAR:
  
                    RESTRICTED RIGHTS LEGEND
  
 Use, reproduction and disclosure by the US Government is
 subject to restrictions as set forth in subparagraphs (a)
 and (c) of the Commercial Computer Software - Restricted
 Rights clause in FAR 52.227-19.
  
 Gaussian, Inc.
 340 Quinnipiac St., Bldg. 40, Wallingford CT 06492
  
  
 ---------------------------------------------------------------
 Warning -- This program may not be used in any manner that
 competes with the business of Gaussian, Inc. or will provide
 assistance to any competitor of Gaussian, Inc.  The licensee
 of this program is prohibited from giving any competitor of
 Gaussian, Inc. access to this program.  By using this program,
 the user acknowledges that Gaussian, Inc. is engaged in the
 business of creating and licensing software in the field of
 computational chemistry and represents and warrants to the
 licensee that it is not a competitor of Gaussian, Inc. and that
 it will not use this program in any manner prohibited above.
 ---------------------------------------------------------------
  

 Cite this work as:
 Gaussian 09, Revision D.01,
 M. J. Frisch, G. W. Trucks, H. B. Schlegel, G. E. Scuseria, 
 M. A. Robb, J. R. Cheeseman, G. Scalmani, V. Barone, B. Mennucci, 
 G. A. Petersson, H. Nakatsuji, M. Caricato, X. Li, H. P. Hratchian, 
 A. F. Izmaylov, J. Bloino, G. Zheng, J. L. Sonnenberg, M. Hada, 
 M. Ehara, K. Toyota, R. Fukuda, J. Hasegawa, M. Ishida, T. Nakajima, 
 Y. Honda, O. Kitao, H. Nakai, T. Vreven, J. A. Montgomery, Jr., 
 J. E. Peralta, F. Ogliaro, M. Bearpark, J. J. Heyd, E. Brothers, 
 K. N. Kudin, V. N. Staroverov, T. Keith, R. Kobayashi, J. Normand, 
 K. Raghavachari, A. Rendell, J. C. Burant, S. S. Iyengar, J. Tomasi, 
 M. Cossi, N. Rega, J. M. Millam, M. Klene, J. E. Knox, J. B. Cross, 
 V. Bakken, C. Adamo, J. Jaramillo, R. Gomperts, R. E. Stratmann, 
 O. Yazyev, A. J. Austin, R. Cammi, C. Pomelli, J. W. Ochterski, 
 R. L. Martin, K. Morokuma, V. G. Zakrzewski, G. A. Voth, 
 P. Salvador, J. J. Dannenberg, S. Dapprich, A. D. Daniels, 
 O. Farkas, J. B. Foresman, J. V. Ortiz, J. Cioslowski, 
 and D. J. Fox, Gaussian, Inc., Wallingford CT, 2013.
 
 ******************************************
 Gaussian 09:  ES64L-G09RevD.01 24-Apr-2013
                 8-Mar-2018 
 ******************************************
 %NProcShared=4
 Will use up to    4 processors via shared memory.
 %LindaWorkers=compute-0-1
 %chk=Isomer_32.chk
 %NProc=4
 Will use up to    4 processors via shared memory.
 %mem=4GB
 SetLPE:  input flags=" -vv -opt "Tsnet.Node.lindarsharg: ssh" "
 SetLPE:    new flags=" -vv -opt "Tsnet.Node.lindarsharg: ssh"  -nodelist 'compute-0-1.local'"
 Will use up to    1 processors via Linda.
 ----------------------------------------------------------------------
 #p PBE1PBE/Def2TZVP scf=(maxcycle=768) opt=(cartesian,maxcycle=512) fr
 eq
 ----------------------------------------------------------------------
 1/6=512,10=7,14=-1,18=10,26=3,38=1/1,3;
 2/12=2,17=6,18=5,29=2,40=1/2;
 3/5=44,7=101,11=2,16=1,25=1,30=1,71=1,74=-13/1,2,3;
 4//1;
 5/5=2,7=768,38=5/2;
 6/7=2,8=2,9=2,10=2,28=1/1;
 7/7=1,29=1/1,2,3,16;
 1/6=512,10=7,14=-1,18=10,26=3/3(2);
 2/29=1/2;
 99/12=1/99;
 2/29=1/2;
 3/5=44,7=101,11=2,16=1,25=1,30=1,71=1,74=-13/1,2,3;
 4/5=5,16=3,69=1/1;
 5/5=2,7=768,38=5/2;
 7/7=1/1,2,3,16;
 1/6=512,14=-1,18=10,26=3/3(-5);
 2/29=1/2;
 6/7=2,8=2,9=2,10=2,19=2,28=1/1;
 99/9=1,12=1/99;
 Leave Link    1 at Thu Mar  8 05:44:58 2018, MaxMem=   536870912 cpu:         0.2
 (Enter /share/apps//mg09/l101.exe)
 ---------------------
 01Final_coords.xyz_32
 ---------------------
 Symbolic Z-matrix:
 Charge =  0 Multiplicity = 1
 83                   -2.34296  -0.92608  -0.29606 
 83                    1.63223   1.63558  -0.59049 
 32                   -0.13209  -2.42393   1.06462 
 83                    2.1864   -1.3398   -0.28224 
 32                   -1.44634  -0.37765   2.41799 
 83                   -1.15289   1.88767   0.59834 
 32                   -0.17721  -2.04976  -1.79068 
 50                   -0.75561   0.8157   -2.34661 
 50                    1.34341   0.20195   2.21075 
 
 NAtoms=      9 NQM=        9 NQMF=       0 NMMI=      0 NMMIF=      0
                NMic=       0 NMicF=      0.
                    Isotopes and Nuclear Properties:
 (Nuclear quadrupole moments (NQMom) in fm**2, nuclear magnetic moments (NMagM)
  in nuclear magnetons)

  Atom         1           2           3           4           5           6           7           8           9
 IAtWgt=         209         209          74         209          74         209          74         118         118
 AtmWgt= 208.9804000 208.9804000  73.9211788 208.9804000  73.9211788 208.9804000  73.9211788 117.9018000 117.9018000
 NucSpn=           9           9           0           9           0           9           0           0           0
 AtZEff=   0.0000000   0.0000000   0.0000000   0.0000000   0.0000000   0.0000000   0.0000000   0.0000000   0.0000000
 NQMom=  -51.6000000 -51.6000000   0.0000000 -51.6000000   0.0000000 -51.6000000   0.0000000   0.0000000   0.0000000
 NMagM=    4.1106000   4.1106000   0.0000000   4.1106000   0.0000000   4.1106000   0.0000000   0.0000000   0.0000000
 AtZNuc=  83.0000000  83.0000000  32.0000000  83.0000000  32.0000000  83.0000000  32.0000000  50.0000000  50.0000000
 Leave Link  101 at Thu Mar  8 05:44:58 2018, MaxMem=   536870912 cpu:         0.2
 (Enter /share/apps//mg09/l103.exe)

 GradGradGradGradGradGradGradGradGradGradGradGradGradGradGradGradGradGrad
 Berny optimization.
 Initialization pass.
 No Z-matrix variables, so optimization will use Cartesian coordinates.
 Trust Radius=3.00D-01 FncErr=1.00D-07 GrdErr=1.00D-06
 Number of steps in this run=    100 maximum allowed number of steps=    100.
 GradGradGradGradGradGradGradGradGradGradGradGradGradGradGradGradGradGrad

 Leave Link  103 at Thu Mar  8 05:44:58 2018, MaxMem=   536870912 cpu:         0.1
 (Enter /share/apps//mg09/l202.exe)
 ---------------------------------------------------------------------------------------------------
                            Z-MATRIX (ANGSTROMS AND DEGREES)
   CD    Cent   Atom    N1       Length/X        N2       Alpha/Y        N3        Beta/Z          J
 ---------------------------------------------------------------------------------------------------
      1      1  Bi       0  -2.342959         -0.926084         -0.296064
      2      2  Bi       0   1.632226          1.635575         -0.590491
      3      3  Ge       0  -0.132091         -2.423930          1.064615
      4      4  Bi       0   2.186396         -1.339802         -0.282242
      5      5  Ge       0  -1.446338         -0.377648          2.417991
      6      6  Bi       0  -1.152890          1.887668          0.598335
      7      7  Ge       0  -0.177208         -2.049760         -1.790677
      8      8  Sn       0  -0.755606          0.815697         -2.346614
      9      9  Sn       0   1.343410          0.201946          2.210748
 ---------------------------------------------------------------------------------------------------
                         Z-Matrix orientation:                         
 ---------------------------------------------------------------------
 Center     Atomic      Atomic             Coordinates (Angstroms)
 Number     Number       Type             X           Y           Z
 ---------------------------------------------------------------------
      1         83           0       -2.342959   -0.926084   -0.296064
      2         83           0        1.632226    1.635575   -0.590491
      3         32           0       -0.132091   -2.423930    1.064615
      4         83           0        2.186396   -1.339802   -0.282242
      5         32           0       -1.446338   -0.377648    2.417991
      6         83           0       -1.152890    1.887668    0.598335
      7         32           0       -0.177208   -2.049760   -1.790677
      8         50           0       -0.755606    0.815697   -2.346614
      9         50           0        1.343410    0.201946    2.210748
 ---------------------------------------------------------------------
                    Distance matrix (angstroms):
                    1          2          3          4          5
     1  Bi   0.000000
     2  Bi   4.738236   0.000000
     3  Ge   2.997153   4.725650   0.000000
     4  Bi   4.548232   3.042202   2.892186   0.000000
     5  Ge   2.910465   4.752009   2.783189   4.627500   0.000000
     6  Bi   3.183302   3.038705   4.455258   4.726818   2.920431
     7  Ge   2.861292   4.277405   2.880057   2.892411   4.703141
     8  Sn   3.123819   3.075371   4.745570   4.190845   4.960105
     9  Sn   4.598464   3.160007   3.222724   3.050018   2.856847
                    6          7          8          9
     6  Bi   0.000000
     7  Ge   4.707725   0.000000
     8  Sn   3.159063   2.975643   0.000000
     9  Sn   3.416584   4.836720   5.054909   0.000000
 Stoichiometry    Bi4Ge3Sn2
 Framework group  C1[X(Bi4Ge3Sn2)]
 Deg. of freedom    21
 Full point group                 C1      NOp   1
 Largest Abelian subgroup         C1      NOp   1
 Largest concise Abelian subgroup C1      NOp   1
                         Standard orientation:                         
 ---------------------------------------------------------------------
 Center     Atomic      Atomic             Coordinates (Angstroms)
 Number     Number       Type             X           Y           Z
 ---------------------------------------------------------------------
      1         83           0        2.342960    0.926082   -0.296064
      2         83           0       -1.632227   -1.635574   -0.590491
      3         32           0        0.132093    2.423930    1.064615
      4         83           0       -2.186395    1.339804   -0.282242
      5         32           0        1.446338    0.377647    2.417991
      6         83           0        1.152888   -1.887669    0.598335
      7         32           0        0.177210    2.049760   -1.790677
      8         50           0        0.755605   -0.815698   -2.346614
      9         50           0       -1.343410   -0.201945    2.210748
 ---------------------------------------------------------------------
 Rotational constants (GHZ):      0.1040492      0.0905714      0.0826358
 Leave Link  202 at Thu Mar  8 05:44:58 2018, MaxMem=   536870912 cpu:         0.1
 (Enter /share/apps//mg09/l301.exe)
 Standard basis: def2TZVP (5D, 7F)
 Ernie: Thresh=  0.10000D-02 Tol=  0.10000D-05 Strict=F.
 There are   519 symmetry adapted cartesian basis functions of A   symmetry.
 There are   444 symmetry adapted basis functions of A   symmetry.
   444 basis functions,   963 primitive gaussians,   519 cartesian basis functions
   116 alpha electrons      116 beta electrons
       nuclear repulsion energy      3545.3643734049 Hartrees.
 IExCor= 1009 DFT=T Ex+Corr=PBE1PBE ExCW=0 ScaHFX=  0.250000
 ScaDFX=  0.750000  0.750000  1.000000  1.000000 ScalE2=  1.000000  1.000000
 IRadAn=      0 IRanWt=     -1 IRanGd=            0 ICorTp=0 IEmpDi=  4
 NAtoms=    9 NActive=    9 NUniq=    9 SFac= 1.00D+00 NAtFMM=   60 NAOKFM=F Big=F
 Integral buffers will be    131072 words long.
 Raffenetti 2 integral format.
 Two-electron integral symmetry is turned on.
 Leave Link  301 at Thu Mar  8 05:44:58 2018, MaxMem=   536870912 cpu:         0.2
 (Enter /share/apps//mg09/l302.exe)
 NPDir=0 NMtPBC=     1 NCelOv=     1 NCel=       1 NClECP=     1 NCelD=      1
         NCelK=      1 NCelE2=     1 NClLst=     1 CellRange=     0.0.
 One-electron integrals computed using PRISM.
   1 Symmetry operations used in ECPInt.
 ECPInt:  NShTT=   10440 NPrTT=   41973 LenC2=    9674 LenP2D=   27449.
 LDataN:  DoStor=T MaxTD1= 8 Len=  415
 NBasis=   444 RedAO= T EigKep=  1.59D-03  NBF=   444
 NBsUse=   444 1.00D-06 EigRej= -1.00D+00 NBFU=   444
 Precomputing XC quadrature grid using
 IXCGrd= 4 IRadAn=           0 IRanWt=          -1 IRanGd=           0 AccXCQ= 0.00D+00.
 Defaulting to unpruned grid for atomic number  83.
 Defaulting to unpruned grid for atomic number  83.
 Defaulting to unpruned grid for atomic number  50.
 Generated NRdTot=       0 NPtTot=           0 NUsed=           0 NTot=          32
 NSgBfM=   501   501   501   501   501 MxSgAt=     9 MxSgA2=     9.
 Leave Link  302 at Thu Mar  8 05:45:08 2018, MaxMem=   536870912 cpu:        35.4
 (Enter /share/apps//mg09/l303.exe)
 DipDrv:  MaxL=1.
 Leave Link  303 at Thu Mar  8 05:45:08 2018, MaxMem=   536870912 cpu:         0.7
 (Enter /share/apps//mg09/l401.exe)
 ExpMin= 4.62D-02 ExpMax= 4.66D+05 ExpMxC= 4.50D+03 IAcc=2 IRadAn=         4 AccDes= 0.00D+00
 Harris functional with IExCor= 1009 and IRadAn=       4 diagonalized for initial guess.
 HarFok:  IExCor= 1009 AccDes= 0.00D+00 IRadAn=         4 IDoV= 1 UseB2=F ITyADJ=14
 ICtDFT=  3500011 ScaDFX=  1.000000  1.000000  1.000000  1.000000
 Defaulting to unpruned grid for atomic number  83.
 Defaulting to unpruned grid for atomic number  83.
 Defaulting to unpruned grid for atomic number  83.
 Defaulting to unpruned grid for atomic number  83.
 FoFCou: FMM=F IPFlag=           0 FMFlag=      100000 FMFlg1=           0
         NFxFlg=           0 DoJE=T BraDBF=F KetDBF=T FulRan=T
         wScrn=  0.000000 ICntrl=     500 IOpCl=  0 I1Cent=   200000004 NGrid=           0
         NMat0=    1 NMatS0=      1 NMatT0=    0 NMatD0=    1 NMtDS0=    0 NMtDT0=    0
 Petite list used in FoFCou.
 Harris En= -7518.60529695388    
 JPrj=0 DoOrth=F DoCkMO=F.
 Leave Link  401 at Thu Mar  8 05:45:11 2018, MaxMem=   536870912 cpu:        12.1
 (Enter /share/apps//mg09/l502.exe)
 Closed shell SCF:
 Using DIIS extrapolation, IDIIS=  1040.
 Integral symmetry usage will be decided dynamically.
 IVT=     1410107 IEndB=     1410107 NGot=   536870912 MDV=   536322046
 LenX=   536322046 LenY=   536052166
 Requested convergence on RMS density matrix=1.00D-08 within 768 cycles.
 Requested convergence on MAX density matrix=1.00D-06.
 Requested convergence on             energy=1.00D-06.
 No special actions if energy rises.
 Fock matrices will be formed incrementally for  20 cycles.

 Cycle   1  Pass 1  IDiag  1:
 FoFJK:  IHMeth= 1 ICntrl=       0 DoSepK=F KAlg= 0 I1Cent=   0 FoldK=F
 IRaf= 880000000 NMat=   1 IRICut=       1 DoRegI=T DoRafI=F ISym2E= 0.
 FoFCou: FMM=F IPFlag=           0 FMFlag=      100000 FMFlg1=           0
         NFxFlg=           0 DoJE=F BraDBF=F KetDBF=F FulRan=T
         wScrn=  0.000000 ICntrl=       0 IOpCl=  0 I1Cent=           0 NGrid=           0
         NMat0=    1 NMatS0=      1 NMatT0=    0 NMatD0=    1 NMtDS0=    0 NMtDT0=    0
 Symmetry not used in FoFCou.
 Defaulting to unpruned grid for atomic number  83.
 Defaulting to unpruned grid for atomic number  83.
 Defaulting to unpruned grid for atomic number  83.
 Defaulting to unpruned grid for atomic number  83.
 E= -7517.25826514677    
 DIIS: error= 2.76D-02 at cycle   1 NSaved=   1.
 NSaved= 1 IEnMin= 1 EnMin= -7517.25826514677     IErMin= 1 ErrMin= 2.76D-02
 ErrMax= 2.76D-02  0.00D+00 EMaxC= 1.00D-01 BMatC= 1.45D+00 BMatP= 1.45D+00
 IDIUse=3 WtCom= 7.24D-01 WtEn= 2.76D-01
 Coeff-Com:  0.100D+01
 Coeff-En:   0.100D+01
 Coeff:      0.100D+01
 Gap=     0.123 Goal=   None    Shift=    0.000
 GapD=    0.123 DampG=1.000 DampE=0.500 DampFc=0.5000 IDamp=-1.
 Damping current iteration by 5.00D-01
 RMSDP=4.88D-03 MaxDP=2.13D-01              OVMax= 5.33D-01

 Cycle   2  Pass 1  IDiag  1:
 RMSU=  2.43D-03    CP:  1.01D+00
 E= -7517.29902247367     Delta-E=       -0.040757326904 Rises=F Damp=T
 DIIS: error= 9.84D-03 at cycle   2 NSaved=   2.
 NSaved= 2 IEnMin= 2 EnMin= -7517.29902247367     IErMin= 2 ErrMin= 9.84D-03
 ErrMax= 9.84D-03  0.00D+00 EMaxC= 1.00D-01 BMatC= 1.96D-01 BMatP= 1.45D+00
 IDIUse=3 WtCom= 9.02D-01 WtEn= 9.84D-02
 Coeff-Com:  0.771D-01 0.923D+00
 Coeff-En:   0.467D+00 0.533D+00
 Coeff:      0.115D+00 0.885D+00
 Gap=     0.123 Goal=   None    Shift=    0.000
 RMSDP=3.06D-03 MaxDP=1.11D-01 DE=-4.08D-02 OVMax= 5.14D-01

 Cycle   3  Pass 1  IDiag  1:
 RMSU=  2.51D-03    CP:  1.01D+00  2.82D-01
 E= -7516.59852738253     Delta-E=        0.700495091136 Rises=F Damp=F
 DIIS: error= 3.07D-02 at cycle   3 NSaved=   3.
 NSaved= 3 IEnMin= 2 EnMin= -7517.29902247367     IErMin= 2 ErrMin= 9.84D-03
 ErrMax= 3.07D-02  0.00D+00 EMaxC= 1.00D-01 BMatC= 9.66D-01 BMatP= 1.96D-01
 IDIUse=2 WtCom= 0.00D+00 WtEn= 1.00D+00
 EnCoef did     9 forward-backward iterations
 Coeff-En:   0.211D+00 0.590D+00 0.199D+00
 Coeff:      0.211D+00 0.590D+00 0.199D+00
 Gap=     0.174 Goal=   None    Shift=    0.000
 RMSDP=2.81D-03 MaxDP=1.04D-01 DE= 7.00D-01 OVMax= 3.19D-01

 Cycle   4  Pass 1  IDiag  1:
 RMSU=  9.35D-04    CP:  1.01D+00  9.19D-01  1.44D-01
 E= -7517.75308951562     Delta-E=       -1.154562133088 Rises=F Damp=F
 DIIS: error= 6.63D-03 at cycle   4 NSaved=   4.
 NSaved= 4 IEnMin= 4 EnMin= -7517.75308951562     IErMin= 4 ErrMin= 6.63D-03
 ErrMax= 6.63D-03  0.00D+00 EMaxC= 1.00D-01 BMatC= 6.43D-02 BMatP= 1.96D-01
 IDIUse=3 WtCom= 9.34D-01 WtEn= 6.63D-02
 Coeff-Com:  0.119D+00-0.121D-02 0.104D+00 0.778D+00
 Coeff-En:   0.000D+00 0.000D+00 0.659D-01 0.934D+00
 Coeff:      0.111D+00-0.113D-02 0.101D+00 0.788D+00
 Gap=     0.112 Goal=   None    Shift=    0.000
 RMSDP=9.18D-04 MaxDP=5.18D-02 DE=-1.15D+00 OVMax= 1.08D-01

 Cycle   5  Pass 1  IDiag  1:
 RMSU=  6.20D-04    CP:  1.00D+00  7.09D-01  2.52D-01  6.80D-01
 E= -7517.78390543383     Delta-E=       -0.030815918210 Rises=F Damp=F
 DIIS: error= 3.85D-03 at cycle   5 NSaved=   5.
 NSaved= 5 IEnMin= 5 EnMin= -7517.78390543383     IErMin= 5 ErrMin= 3.85D-03
 ErrMax= 3.85D-03  0.00D+00 EMaxC= 1.00D-01 BMatC= 2.49D-02 BMatP= 6.43D-02
 IDIUse=3 WtCom= 9.62D-01 WtEn= 3.85D-02
 Coeff-Com:  0.894D-01-0.147D+00 0.550D-02 0.590D+00 0.461D+00
 Coeff-En:   0.000D+00 0.000D+00 0.000D+00 0.342D+00 0.658D+00
 Coeff:      0.859D-01-0.141D+00 0.529D-02 0.581D+00 0.469D+00
 Gap=     0.117 Goal=   None    Shift=    0.000
 RMSDP=4.82D-04 MaxDP=3.22D-02 DE=-3.08D-02 OVMax= 6.58D-02

 Cycle   6  Pass 1  IDiag  1:
 RMSU=  2.53D-04    CP:  1.00D+00  7.13D-01  1.86D-01  8.45D-01  4.51D-01
 E= -7517.80441815316     Delta-E=       -0.020512719326 Rises=F Damp=F
 DIIS: error= 2.09D-03 at cycle   6 NSaved=   6.
 NSaved= 6 IEnMin= 6 EnMin= -7517.80441815316     IErMin= 6 ErrMin= 2.09D-03
 ErrMax= 2.09D-03  0.00D+00 EMaxC= 1.00D-01 BMatC= 4.88D-03 BMatP= 2.49D-02
 IDIUse=3 WtCom= 9.79D-01 WtEn= 2.09D-02
 Coeff-Com:  0.609D-01-0.113D+00-0.919D-03 0.402D+00 0.360D+00 0.292D+00
 Coeff-En:   0.000D+00 0.000D+00 0.000D+00 0.000D+00 0.205D+00 0.795D+00
 Coeff:      0.596D-01-0.111D+00-0.899D-03 0.393D+00 0.356D+00 0.302D+00
 Gap=     0.115 Goal=   None    Shift=    0.000
 RMSDP=2.29D-04 MaxDP=7.81D-03 DE=-2.05D-02 OVMax= 3.20D-02

 Cycle   7  Pass 1  IDiag  1:
 RMSU=  9.91D-05    CP:  1.00D+00  7.15D-01  1.86D-01  8.53D-01  5.39D-01
                    CP:  2.12D-01
 E= -7517.81007777496     Delta-E=       -0.005659621806 Rises=F Damp=F
 DIIS: error= 8.77D-04 at cycle   7 NSaved=   7.
 NSaved= 7 IEnMin= 7 EnMin= -7517.81007777496     IErMin= 7 ErrMin= 8.77D-04
 ErrMax= 8.77D-04  0.00D+00 EMaxC= 1.00D-01 BMatC= 6.49D-04 BMatP= 4.88D-03
 IDIUse=3 WtCom= 9.91D-01 WtEn= 8.77D-03
 Coeff-Com:  0.233D-01-0.477D-01 0.172D-02 0.145D+00 0.142D+00 0.244D+00
 Coeff-Com:  0.492D+00
 Coeff-En:   0.000D+00 0.000D+00 0.000D+00 0.000D+00 0.000D+00 0.173D+00
 Coeff-En:   0.827D+00
 Coeff:      0.231D-01-0.473D-01 0.171D-02 0.144D+00 0.140D+00 0.244D+00
 Coeff:      0.495D+00
 Gap=     0.116 Goal=   None    Shift=    0.000
 RMSDP=7.32D-05 MaxDP=3.35D-03 DE=-5.66D-03 OVMax= 9.97D-03

 Cycle   8  Pass 1  IDiag  1:
 RMSU=  3.20D-05    CP:  1.00D+00  7.11D-01  1.98D-01  8.61D-01  5.07D-01
                    CP:  3.88D-01  7.14D-01
 E= -7517.81090722981     Delta-E=       -0.000829454844 Rises=F Damp=F
 DIIS: error= 1.10D-04 at cycle   8 NSaved=   8.
 NSaved= 8 IEnMin= 8 EnMin= -7517.81090722981     IErMin= 8 ErrMin= 1.10D-04
 ErrMax= 1.10D-04  0.00D+00 EMaxC= 1.00D-01 BMatC= 2.04D-05 BMatP= 6.49D-04
 IDIUse=3 WtCom= 9.99D-01 WtEn= 1.10D-03
 Coeff-Com:  0.947D-02-0.201D-01 0.921D-03 0.561D-01 0.532D-01 0.101D+00
 Coeff-Com:  0.244D+00 0.556D+00
 Coeff-En:   0.000D+00 0.000D+00 0.000D+00 0.000D+00 0.000D+00 0.000D+00
 Coeff-En:   0.000D+00 0.100D+01
 Coeff:      0.946D-02-0.201D-01 0.920D-03 0.560D-01 0.532D-01 0.101D+00
 Coeff:      0.244D+00 0.556D+00
 Gap=     0.115 Goal=   None    Shift=    0.000
 RMSDP=2.17D-05 MaxDP=1.11D-03 DE=-8.29D-04 OVMax= 2.45D-03

 Cycle   9  Pass 1  IDiag  1:
 RMSU=  1.74D-05    CP:  1.00D+00  7.11D-01  1.97D-01  8.59D-01  5.11D-01
                    CP:  3.85D-01  7.27D-01  6.26D-01
 E= -7517.81090848487     Delta-E=       -0.000001255064 Rises=F Damp=F
 DIIS: error= 9.82D-05 at cycle   9 NSaved=   9.
 NSaved= 9 IEnMin= 9 EnMin= -7517.81090848487     IErMin= 9 ErrMin= 9.82D-05
 ErrMax= 9.82D-05  0.00D+00 EMaxC= 1.00D-01 BMatC= 1.65D-05 BMatP= 2.04D-05
 IDIUse=1 WtCom= 1.00D+00 WtEn= 0.00D+00
 Coeff-Com:  0.181D-02-0.421D-02 0.498D-03 0.838D-02 0.728D-02 0.221D-01
 Coeff-Com:  0.813D-01 0.462D+00 0.420D+00
 Coeff:      0.181D-02-0.421D-02 0.498D-03 0.838D-02 0.728D-02 0.221D-01
 Coeff:      0.813D-01 0.462D+00 0.420D+00
 Gap=     0.115 Goal=   None    Shift=    0.000
 RMSDP=1.42D-05 MaxDP=5.39D-04 DE=-1.26D-06 OVMax= 1.67D-03

 Cycle  10  Pass 1  IDiag  1:
 RMSU=  6.82D-06    CP:  1.00D+00  7.11D-01  1.97D-01  8.59D-01  5.11D-01
                    CP:  3.82D-01  7.34D-01  8.23D-01  3.97D-01
 E= -7517.81092671477     Delta-E=       -0.000018229899 Rises=F Damp=F
 DIIS: error= 4.90D-05 at cycle  10 NSaved=  10.
 NSaved=10 IEnMin=10 EnMin= -7517.81092671477     IErMin=10 ErrMin= 4.90D-05
 ErrMax= 4.90D-05  0.00D+00 EMaxC= 1.00D-01 BMatC= 2.93D-06 BMatP= 1.65D-05
 IDIUse=1 WtCom= 1.00D+00 WtEn= 0.00D+00
 Coeff-Com: -0.463D-03 0.745D-03 0.224D-03-0.465D-02-0.447D-02-0.732D-03
 Coeff-Com:  0.194D-01 0.251D+00 0.323D+00 0.415D+00
 Coeff:     -0.463D-03 0.745D-03 0.224D-03-0.465D-02-0.447D-02-0.732D-03
 Coeff:      0.194D-01 0.251D+00 0.323D+00 0.415D+00
 Gap=     0.115 Goal=   None    Shift=    0.000
 RMSDP=5.86D-06 MaxDP=3.26D-04 DE=-1.82D-05 OVMax= 6.37D-04

 Cycle  11  Pass 1  IDiag  1:
 RMSU=  2.22D-06    CP:  1.00D+00  7.10D-01  1.97D-01  8.60D-01  5.10D-01
                    CP:  3.84D-01  7.46D-01  8.41D-01  5.53D-01  3.74D-01
 E= -7517.81093020933     Delta-E=       -0.000003494561 Rises=F Damp=F
 DIIS: error= 1.58D-05 at cycle  11 NSaved=  11.
 NSaved=11 IEnMin=11 EnMin= -7517.81093020933     IErMin=11 ErrMin= 1.58D-05
 ErrMax= 1.58D-05  0.00D+00 EMaxC= 1.00D-01 BMatC= 2.40D-07 BMatP= 2.93D-06
 IDIUse=1 WtCom= 1.00D+00 WtEn= 0.00D+00
 Coeff-Com: -0.309D-03 0.554D-03 0.227D-04-0.261D-02-0.253D-02-0.189D-02
 Coeff-Com:  0.367D-02 0.980D-01 0.150D+00 0.276D+00 0.478D+00
 Coeff:     -0.309D-03 0.554D-03 0.227D-04-0.261D-02-0.253D-02-0.189D-02
 Coeff:      0.367D-02 0.980D-01 0.150D+00 0.276D+00 0.478D+00
 Gap=     0.115 Goal=   None    Shift=    0.000
 RMSDP=1.45D-06 MaxDP=8.55D-05 DE=-3.49D-06 OVMax= 1.54D-04

 Cycle  12  Pass 1  IDiag  1:
 RMSU=  6.53D-07    CP:  1.00D+00  7.11D-01  1.97D-01  8.60D-01  5.11D-01
                    CP:  3.85D-01  7.44D-01  8.36D-01  5.42D-01  4.92D-01
                    CP:  7.39D-01
 E= -7517.81093051527     Delta-E=       -0.000000305943 Rises=F Damp=F
 DIIS: error= 1.40D-06 at cycle  12 NSaved=  12.
 NSaved=12 IEnMin=12 EnMin= -7517.81093051527     IErMin=12 ErrMin= 1.40D-06
 ErrMax= 1.40D-06  0.00D+00 EMaxC= 1.00D-01 BMatC= 5.64D-09 BMatP= 2.40D-07
 IDIUse=1 WtCom= 1.00D+00 WtEn= 0.00D+00
 Coeff-Com: -0.923D-04 0.172D-03-0.386D-05-0.699D-03-0.675D-03-0.562D-03
 Coeff-Com:  0.297D-03 0.124D-01 0.301D-01 0.798D-01 0.178D+00 0.701D+00
 Coeff:     -0.923D-04 0.172D-03-0.386D-05-0.699D-03-0.675D-03-0.562D-03
 Coeff:      0.297D-03 0.124D-01 0.301D-01 0.798D-01 0.178D+00 0.701D+00
 Gap=     0.115 Goal=   None    Shift=    0.000
 RMSDP=3.00D-07 MaxDP=9.80D-06 DE=-3.06D-07 OVMax= 3.61D-05

 Cycle  13  Pass 1  IDiag  1:
 RMSU=  2.51D-07    CP:  1.00D+00  7.11D-01  1.97D-01  8.60D-01  5.11D-01
                    CP:  3.85D-01  7.44D-01  8.35D-01  5.45D-01  5.06D-01
                    CP:  7.80D-01  9.79D-01
 E= -7517.81093052026     Delta-E=       -0.000000004991 Rises=F Damp=F
 DIIS: error= 7.91D-07 at cycle  13 NSaved=  13.
 NSaved=13 IEnMin=13 EnMin= -7517.81093052026     IErMin=13 ErrMin= 7.91D-07
 ErrMax= 7.91D-07  0.00D+00 EMaxC= 1.00D-01 BMatC= 1.35D-09 BMatP= 5.64D-09
 IDIUse=1 WtCom= 1.00D+00 WtEn= 0.00D+00
 Coeff-Com: -0.192D-04 0.392D-04-0.344D-05-0.129D-03-0.142D-03-0.167D-03
 Coeff-Com: -0.310D-03-0.536D-02-0.208D-02 0.782D-02 0.266D-01 0.378D+00
 Coeff-Com:  0.596D+00
 Coeff:     -0.192D-04 0.392D-04-0.344D-05-0.129D-03-0.142D-03-0.167D-03
 Coeff:     -0.310D-03-0.536D-02-0.208D-02 0.782D-02 0.266D-01 0.378D+00
 Coeff:      0.596D+00
 Gap=     0.115 Goal=   None    Shift=    0.000
 RMSDP=1.42D-07 MaxDP=9.84D-06 DE=-4.99D-09 OVMax= 1.60D-05

 Cycle  14  Pass 1  IDiag  1:
 RMSU=  8.52D-08    CP:  1.00D+00  7.11D-01  1.97D-01  8.60D-01  5.11D-01
                    CP:  3.85D-01  7.45D-01  8.37D-01  5.46D-01  5.11D-01
                    CP:  7.94D-01  1.05D+00  7.55D-01
 E= -7517.81093052163     Delta-E=       -0.000000001364 Rises=F Damp=F
 DIIS: error= 2.82D-07 at cycle  14 NSaved=  14.
 NSaved=14 IEnMin=14 EnMin= -7517.81093052163     IErMin=14 ErrMin= 2.82D-07
 ErrMax= 2.82D-07  0.00D+00 EMaxC= 1.00D-01 BMatC= 1.66D-10 BMatP= 1.35D-09
 IDIUse=1 WtCom= 1.00D+00 WtEn= 0.00D+00
 Coeff-Com: -0.374D-05 0.899D-05-0.204D-05-0.206D-04-0.345D-04-0.547D-04
 Coeff-Com: -0.202D-03-0.416D-02-0.388D-02-0.365D-02-0.444D-02 0.135D+00
 Coeff-Com:  0.320D+00 0.562D+00
 Coeff:     -0.374D-05 0.899D-05-0.204D-05-0.206D-04-0.345D-04-0.547D-04
 Coeff:     -0.202D-03-0.416D-02-0.388D-02-0.365D-02-0.444D-02 0.135D+00
 Coeff:      0.320D+00 0.562D+00
 Gap=     0.115 Goal=   None    Shift=    0.000
 RMSDP=4.30D-08 MaxDP=1.75D-06 DE=-1.36D-09 OVMax= 5.84D-06

 Cycle  15  Pass 1  IDiag  1:
 RMSU=  2.73D-08    CP:  1.00D+00  7.11D-01  1.97D-01  8.60D-01  5.11D-01
                    CP:  3.85D-01  7.45D-01  8.37D-01  5.47D-01  5.11D-01
                    CP:  7.99D-01  1.07D+00  8.26D-01  8.17D-01
 E= -7517.81093052201     Delta-E=       -0.000000000378 Rises=F Damp=F
 DIIS: error= 8.00D-08 at cycle  15 NSaved=  15.
 NSaved=15 IEnMin=15 EnMin= -7517.81093052201     IErMin=15 ErrMin= 8.00D-08
 ErrMax= 8.00D-08  0.00D+00 EMaxC= 1.00D-01 BMatC= 1.42D-11 BMatP= 1.66D-10
 IDIUse=1 WtCom= 1.00D+00 WtEn= 0.00D+00
 Coeff-Com:  0.269D-05-0.464D-05-0.118D-05 0.186D-04 0.122D-04-0.259D-07
 Coeff-Com: -0.423D-04-0.111D-02-0.139D-02-0.302D-02-0.773D-02 0.136D-02
 Coeff-Com:  0.464D-01 0.226D+00 0.739D+00
 Coeff:      0.269D-05-0.464D-05-0.118D-05 0.186D-04 0.122D-04-0.259D-07
 Coeff:     -0.423D-04-0.111D-02-0.139D-02-0.302D-02-0.773D-02 0.136D-02
 Coeff:      0.464D-01 0.226D+00 0.739D+00
 Gap=     0.115 Goal=   None    Shift=    0.000
 RMSDP=1.72D-08 MaxDP=7.07D-07 DE=-3.78D-10 OVMax= 3.11D-06

 Cycle  16  Pass 1  IDiag  1:
 RMSU=  8.56D-09    CP:  1.00D+00  7.11D-01  1.97D-01  8.60D-01  5.11D-01
                    CP:  3.85D-01  7.45D-01  8.37D-01  5.47D-01  5.12D-01
                    CP:  8.01D-01  1.08D+00  8.36D-01  9.00D-01  1.01D+00
 E= -7517.81093052236     Delta-E=       -0.000000000357 Rises=F Damp=F
 DIIS: error= 3.81D-08 at cycle  16 NSaved=  16.
 NSaved=16 IEnMin=16 EnMin= -7517.81093052236     IErMin=16 ErrMin= 3.81D-08
 ErrMax= 3.81D-08  0.00D+00 EMaxC= 1.00D-01 BMatC= 1.53D-12 BMatP= 1.42D-11
 IDIUse=1 WtCom= 1.00D+00 WtEn= 0.00D+00
 Coeff-Com:  0.113D-05-0.226D-05-0.892D-07 0.765D-05 0.625D-05 0.110D-05
 Coeff-Com: -0.162D-04-0.227D-03-0.334D-03-0.866D-03-0.268D-02-0.667D-02
 Coeff-Com: -0.259D-02 0.547D-01 0.304D+00 0.654D+00
 Coeff:      0.113D-05-0.226D-05-0.892D-07 0.765D-05 0.625D-05 0.110D-05
 Coeff:     -0.162D-04-0.227D-03-0.334D-03-0.866D-03-0.268D-02-0.667D-02
 Coeff:     -0.259D-02 0.547D-01 0.304D+00 0.654D+00
 Gap=     0.115 Goal=   None    Shift=    0.000
 RMSDP=4.94D-09 MaxDP=2.53D-07 DE=-3.57D-10 OVMax= 8.00D-07

 SCF Done:  E(RPBE1PBE) =  -7517.81093052     A.U. after   16 cycles
            NFock= 16  Conv=0.49D-08     -V/T= 2.1285
 KE= 6.661969117908D+03 PE=-2.468211251373D+04 EE= 6.956968091898D+03
 Leave Link  502 at Thu Mar  8 06:00:30 2018, MaxMem=   536870912 cpu:      3389.9
 (Enter /share/apps//mg09/l601.exe)
 Copying SCF densities to generalized density rwf, IOpCl= 0 IROHF=0.

 **********************************************************************

            Population analysis using the SCF density.

 **********************************************************************

 Orbital symmetries:
       Occupied  (A) (A) (A) (A) (A) (A) (A) (A) (A) (A) (A) (A)
                 (A) (A) (A) (A) (A) (A) (A) (A) (A) (A) (A) (A)
                 (A) (A) (A) (A) (A) (A) (A) (A) (A) (A) (A) (A)
                 (A) (A) (A) (A) (A) (A) (A) (A) (A) (A) (A) (A)
                 (A) (A) (A) (A) (A) (A) (A) (A) (A) (A) (A) (A)
                 (A) (A) (A) (A) (A) (A) (A) (A) (A) (A) (A) (A)
                 (A) (A) (A) (A) (A) (A) (A) (A) (A) (A) (A) (A)
                 (A) (A) (A) (A) (A) (A) (A) (A) (A) (A) (A) (A)
                 (A) (A) (A) (A) (A) (A) (A) (A) (A) (A) (A) (A)
                 (A) (A) (A) (A) (A) (A) (A) (A)
       Virtual   (A) (A) (A) (A) (A) (A) (A) (A) (A) (A) (A) (A)
                 (A) (A) (A) (A) (A) (A) (A) (A) (A) (A) (A) (A)
                 (A) (A) (A) (A) (A) (A) (A) (A) (A) (A) (A) (A)
                 (A) (A) (A) (A) (A) (A) (A) (A) (A) (A) (A) (A)
                 (A) (A) (A) (A) (A) (A) (A) (A) (A) (A) (A) (A)
                 (A) (A) (A) (A) (A) (A) (A) (A) (A) (A) (A) (A)
                 (A) (A) (A) (A) (A) (A) (A) (A) (A) (A) (A) (A)
                 (A) (A) (A) (A) (A) (A) (A) (A) (A) (A) (A) (A)
                 (A) (A) (A) (A) (A) (A) (A) (A) (A) (A) (A) (A)
                 (A) (A) (A) (A) (A) (A) (A) (A) (A) (A) (A) (A)
                 (A) (A) (A) (A) (A) (A) (A) (A) (A) (A) (A) (A)
                 (A) (A) (A) (A) (A) (A) (A) (A) (A) (A) (A) (A)
                 (A) (A) (A) (A) (A) (A) (A) (A) (A) (A) (A) (A)
                 (A) (A) (A) (A) (A) (A) (A) (A) (A) (A) (A) (A)
                 (A) (A) (A) (A) (A) (A) (A) (A) (A) (A) (A) (A)
                 (A) (A) (A) (A) (A) (A) (A) (A) (A) (A) (A) (A)
                 (A) (A) (A) (A) (A) (A) (A) (A) (A) (A) (A) (A)
                 (A) (A) (A) (A) (A) (A) (A) (A) (A) (A) (A) (A)
                 (A) (A) (A) (A) (A) (A) (A) (A) (A) (A) (A) (A)
                 (A) (A) (A) (A) (A) (A) (A) (A) (A) (A) (A) (A)
                 (A) (A) (A) (A) (A) (A) (A) (A) (A) (A) (A) (A)
                 (A) (A) (A) (A) (A) (A) (A) (A) (A) (A) (A) (A)
                 (A) (A) (A) (A) (A) (A) (A) (A) (A) (A) (A) (A)
                 (A) (A) (A) (A) (A) (A) (A) (A) (A) (A) (A) (A)
                 (A) (A) (A) (A) (A) (A) (A) (A) (A) (A) (A) (A)
                 (A) (A) (A) (A) (A) (A) (A) (A) (A) (A) (A) (A)
                 (A) (A) (A) (A) (A) (A) (A) (A) (A) (A) (A) (A)
                 (A) (A) (A) (A)
 The electronic state is 1-A.
 Alpha  occ. eigenvalues -- -399.09834-399.09346-399.08795 -49.91381 -49.90956
 Alpha  occ. eigenvalues --  -49.90389 -44.39467 -44.39432 -44.39416 -44.39037
 Alpha  occ. eigenvalues --  -44.39025 -44.38959 -44.38464 -44.38453 -44.38410
 Alpha  occ. eigenvalues --   -6.27881  -6.27468  -6.26893  -6.02531  -6.02230
 Alpha  occ. eigenvalues --   -6.01688  -6.01373  -5.13939  -5.13174  -4.43334
 Alpha  occ. eigenvalues --   -4.43210  -4.43154  -4.42924  -4.42886  -4.42659
 Alpha  occ. eigenvalues --   -4.42332  -4.42280  -4.42132  -3.74812  -3.74657
 Alpha  occ. eigenvalues --   -3.74540  -3.74532  -3.74363  -3.74226  -3.73967
 Alpha  occ. eigenvalues --   -3.73857  -3.73712  -3.73637  -3.73435  -3.73382
 Alpha  occ. eigenvalues --   -3.47224  -3.47065  -3.46876  -3.46418  -3.46368
 Alpha  occ. eigenvalues --   -3.46076  -1.22769  -1.22759  -1.22711  -1.22631
 Alpha  occ. eigenvalues --   -1.22590  -1.22422  -1.22396  -1.22209  -1.22171
 Alpha  occ. eigenvalues --   -1.22123  -1.21817  -1.21789  -1.21666  -1.21605
 Alpha  occ. eigenvalues --   -1.21587  -1.08794  -1.08532  -1.08368  -1.08351
 Alpha  occ. eigenvalues --   -1.08229  -1.08064  -1.08007  -1.07942  -1.07908
 Alpha  occ. eigenvalues --   -1.07844  -1.07813  -1.07622  -1.07479  -1.07347
 Alpha  occ. eigenvalues --   -1.07250  -1.07199  -1.07104  -1.06961  -1.06917
 Alpha  occ. eigenvalues --   -1.06861  -1.03404  -1.03375  -1.03204  -1.03118
 Alpha  occ. eigenvalues --   -1.03053  -1.02663  -1.02656  -1.02370  -1.02348
 Alpha  occ. eigenvalues --   -1.02271  -0.66791  -0.62182  -0.60645  -0.55477
 Alpha  occ. eigenvalues --   -0.51406  -0.47501  -0.43454  -0.41744  -0.40950
 Alpha  occ. eigenvalues --   -0.29093  -0.27632  -0.27140  -0.25516  -0.24891
 Alpha  occ. eigenvalues --   -0.24336  -0.23437  -0.22962  -0.22191  -0.20884
 Alpha  occ. eigenvalues --   -0.19328
 Alpha virt. eigenvalues --   -0.07789  -0.07379  -0.07038  -0.06917  -0.06108
 Alpha virt. eigenvalues --   -0.05724  -0.05174  -0.04787  -0.04363  -0.03803
 Alpha virt. eigenvalues --   -0.03125  -0.02201  -0.01020   0.03916   0.05041
 Alpha virt. eigenvalues --    0.05385   0.06337   0.07883   0.08656   0.09059
 Alpha virt. eigenvalues --    0.09431   0.09504   0.09744   0.09924   0.10499
 Alpha virt. eigenvalues --    0.10771   0.11312   0.11737   0.12432   0.12524
 Alpha virt. eigenvalues --    0.13826   0.16118   0.16343   0.16851   0.17066
 Alpha virt. eigenvalues --    0.17724   0.18268   0.19598   0.19802   0.20312
 Alpha virt. eigenvalues --    0.20564   0.21048   0.21928   0.23333   0.23920
 Alpha virt. eigenvalues --    0.24720   0.26426   0.26787   0.28100   0.28699
 Alpha virt. eigenvalues --    0.29334   0.29886   0.30481   0.30797   0.31379
 Alpha virt. eigenvalues --    0.31949   0.32229   0.32412   0.33089   0.33387
 Alpha virt. eigenvalues --    0.33798   0.35230   0.36090   0.36785   0.37921
 Alpha virt. eigenvalues --    0.38282   0.39780   0.40639   0.41365   0.41893
 Alpha virt. eigenvalues --    0.42278   0.42642   0.43427   0.44442   0.45077
 Alpha virt. eigenvalues --    0.45440   0.46324   0.46534   0.47445   0.48208
 Alpha virt. eigenvalues --    0.48795   0.49243   0.50479   0.50570   0.51364
 Alpha virt. eigenvalues --    0.53007   0.53423   0.53917   0.54309   0.54861
 Alpha virt. eigenvalues --    0.56183   0.57802   0.58055   0.58780   0.59387
 Alpha virt. eigenvalues --    0.60322   0.60880   0.61682   0.61873   0.62697
 Alpha virt. eigenvalues --    0.63262   0.64185   0.64628   0.65478   0.66148
 Alpha virt. eigenvalues --    0.66620   0.67096   0.67632   0.68354   0.69382
 Alpha virt. eigenvalues --    0.69813   0.71436   0.72372   0.73095   0.73344
 Alpha virt. eigenvalues --    0.74686   0.75226   0.76335   0.76828   0.78464
 Alpha virt. eigenvalues --    0.79736   0.80476   0.80976   0.81265   0.82928
 Alpha virt. eigenvalues --    0.83016   0.83832   0.84999   0.85303   0.85643
 Alpha virt. eigenvalues --    0.86246   0.86355   0.86743   0.88620   0.89136
 Alpha virt. eigenvalues --    0.89644   0.91337   0.91836   0.92461   0.93518
 Alpha virt. eigenvalues --    0.94059   0.94932   0.96295   0.96650   0.97545
 Alpha virt. eigenvalues --    0.97822   0.98595   0.99364   1.00086   1.00627
 Alpha virt. eigenvalues --    1.01334   1.02771   1.04685   1.06067   1.06639
 Alpha virt. eigenvalues --    1.08064   1.09278   1.10136   1.11711   1.13138
 Alpha virt. eigenvalues --    1.13545   1.15281   1.15710   1.16700   1.17170
 Alpha virt. eigenvalues --    1.18644   1.19047   1.19458   1.19944   1.20215
 Alpha virt. eigenvalues --    1.20612   1.21245   1.21403   1.22122   1.22674
 Alpha virt. eigenvalues --    1.23017   1.23502   1.24106   1.24474   1.25143
 Alpha virt. eigenvalues --    1.25646   1.25845   1.26166   1.26664   1.27112
 Alpha virt. eigenvalues --    1.27815   1.28287   1.28518   1.28868   1.29403
 Alpha virt. eigenvalues --    1.30365   1.31141   1.31951   1.32280   1.33385
 Alpha virt. eigenvalues --    1.34178   1.35280   1.37051   1.37565   1.38516
 Alpha virt. eigenvalues --    1.39210   1.40200   1.41436   1.42873   1.44415
 Alpha virt. eigenvalues --    1.44494   1.45830   1.46745   1.47397   1.48661
 Alpha virt. eigenvalues --    1.49519   1.50656   1.51454   1.52794   1.53443
 Alpha virt. eigenvalues --    1.53783   1.54792   1.55233   1.58786   1.60255
 Alpha virt. eigenvalues --    1.64756   1.66989   1.68709   2.03402   2.05129
 Alpha virt. eigenvalues --    2.08080   2.09543   2.12178   2.14952   2.15668
 Alpha virt. eigenvalues --    2.17964   2.18592   2.18904   2.19903   2.20807
 Alpha virt. eigenvalues --    2.22005   2.23084   2.23975   2.24469   2.25594
 Alpha virt. eigenvalues --    2.27177   2.27572   2.29153   2.29961   2.31093
 Alpha virt. eigenvalues --    2.33657   2.34663   2.36626   2.39729   2.40167
 Alpha virt. eigenvalues --    2.40836   2.41727   2.43073   2.44826   2.48027
 Alpha virt. eigenvalues --    2.49653   2.50456   2.51781   2.53242   2.54630
 Alpha virt. eigenvalues --    2.56074   2.58617   2.61623   2.62932   2.67070
 Alpha virt. eigenvalues --    2.67425   2.69437   2.71015   2.71267   2.74505
 Alpha virt. eigenvalues --    2.76020   2.77588   2.79912   2.80558   2.81360
 Alpha virt. eigenvalues --    2.82252   2.83539   2.88187   2.93587   2.97739
 Alpha virt. eigenvalues --    3.18797   3.23208   3.34297   3.36820   3.37547
 Alpha virt. eigenvalues --    3.43510   3.96948   3.98166   3.99180   4.00321
 Alpha virt. eigenvalues --    4.01389   4.04402   4.06161   4.07897   4.12478
 Alpha virt. eigenvalues --    5.29633   5.32908   5.37507  35.37632  35.39322
 Alpha virt. eigenvalues --   35.41437  35.45116  35.45765  35.46285  35.50121
 Alpha virt. eigenvalues --   35.52123  35.54659  35.55923  35.60565  35.63146
 Alpha virt. eigenvalues --   35.88383  35.90726  36.00588  36.09042  36.19958
 Alpha virt. eigenvalues --   36.21222  36.92083  36.96188  37.02040  37.03981
 Alpha virt. eigenvalues --   37.07271  37.12020 113.57404 113.58311 120.22383
 Alpha virt. eigenvalues --  120.23048 120.24515 120.25836
          Condensed to atoms (all electrons):
               1          2          3          4          5          6
     1  Bi  22.240396  -0.023823   0.118016  -0.024694   0.141133   0.119442
     2  Bi  -0.023823  22.443971  -0.017156   0.181485  -0.015789   0.184340
     3  Ge   0.118016  -0.017156  31.523155   0.162041   0.141826  -0.027219
     4  Bi  -0.024694   0.181485   0.162041  22.319757  -0.018491  -0.025561
     5  Ge   0.141133  -0.015789   0.141826  -0.018491  31.630094   0.164211
     6  Bi   0.119442   0.184340  -0.027219  -0.025561   0.164211  22.313056
     7  Ge   0.169110  -0.011753   0.106689   0.189485  -0.014335  -0.023393
     8  Sn   0.126645   0.162042  -0.018903  -0.011650  -0.013138   0.128867
     9  Sn  -0.025957   0.118724   0.069899   0.154122   0.188674   0.066087
               7          8          9
     1  Bi   0.169110   0.126645  -0.025957
     2  Bi  -0.011753   0.162042   0.118724
     3  Ge   0.106689  -0.018903   0.069899
     4  Bi   0.189485  -0.011650   0.154122
     5  Ge  -0.014335  -0.013138   0.188674
     6  Bi  -0.023393   0.128867   0.066087
     7  Ge  31.588000   0.183260  -0.014431
     8  Sn   0.183260  21.446623  -0.015412
     9  Sn  -0.014431  -0.015412  21.346163
 Mulliken charges:
               1
     1  Bi   0.159733
     2  Bi  -0.022042
     3  Ge  -0.058349
     4  Bi   0.073507
     5  Ge  -0.204186
     6  Bi   0.100170
     7  Ge  -0.172631
     8  Sn   0.011666
     9  Sn   0.112132
 Sum of Mulliken charges =   0.00000
 Mulliken charges with hydrogens summed into heavy atoms:
               1
     1  Bi   0.159733
     2  Bi  -0.022042
     3  Ge  -0.058349
     4  Bi   0.073507
     5  Ge  -0.204186
     6  Bi   0.100170
     7  Ge  -0.172631
     8  Sn   0.011666
     9  Sn   0.112132
 Electronic spatial extent (au):  <R**2>=           6095.7456
 Charge=              0.0000 electrons
 Dipole moment (field-independent basis, Debye):
    X=             -0.3689    Y=             -1.4295    Z=             -0.1250  Tot=              1.4816
 Quadrupole moment (field-independent basis, Debye-Ang):
   XX=           -213.7653   YY=           -220.1104   ZZ=           -221.1087
   XY=             -0.0925   XZ=              0.1903   YZ=              0.0794
 Traceless Quadrupole moment (field-independent basis, Debye-Ang):
   XX=              4.5628   YY=             -1.7823   ZZ=             -2.7805
   XY=             -0.0925   XZ=              0.1903   YZ=              0.0794
 Octapole moment (field-independent basis, Debye-Ang**2):
  XXX=            -19.1395  YYY=            -86.6654  ZZZ=            -30.5733  XYY=             -8.3055
  XXY=            -17.1107  XXZ=            -17.6188  XZZ=            -15.4369  YZZ=            -26.1778
  YYZ=             -4.5292  XYZ=             -5.5639
 Hexadecapole moment (field-independent basis, Debye-Ang**3):
 XXXX=          -3367.1299 YYYY=          -3120.4279 ZZZZ=          -3109.3136 XXXY=             -3.3571
 XXXZ=             45.6925 YYYX=            -28.7147 YYYZ=            -24.1208 ZZZX=             24.7428
 ZZZY=            -22.6469 XXYY=          -1063.4973 XXZZ=          -1105.8119 YYZZ=          -1050.2701
 XXYZ=            -17.4154 YYXZ=             34.7002 ZZXY=             -2.0943
 N-N= 3.545364373405D+03 E-N=-2.468211253839D+04  KE= 6.661969117908D+03
 No NMR shielding tensors so no spin-rotation constants.
 Leave Link  601 at Thu Mar  8 06:00:31 2018, MaxMem=   536870912 cpu:         1.7
 (Enter /share/apps//mg09/l701.exe)
 Compute integral first derivatives.
 ... and contract with generalized density number  0.
   1 Symmetry operations used in ECPInt.
 ECPInt:  NShTT=   10440 NPrTT=   41973 LenC2=    9674 LenP2D=   27449.
 LDataN:  DoStor=T MaxTD1= 9 Len=  602
 Leave Link  701 at Thu Mar  8 06:00:56 2018, MaxMem=   536870912 cpu:        89.3
 (Enter /share/apps//mg09/l702.exe)
 L702 exits ... SP integral derivatives will be done elsewhere.
 Leave Link  702 at Thu Mar  8 06:00:56 2018, MaxMem=   536870912 cpu:         0.1
 (Enter /share/apps//mg09/l703.exe)
 Compute integral first derivatives, UseDBF=F ICtDFT=           0.
 Integral derivatives from FoFJK, PRISM(SPDF).
 Calling FoFJK, ICntrl=      2127 FMM=F ISym2X=0 I1Cent= 0 IOpClX= 0 NMat=1 NMatS=1 NMatT=0.
 FoFJK:  IHMeth= 1 ICntrl=    2127 DoSepK=F KAlg= 0 I1Cent=   0 FoldK=F
 IRaf=         0 NMat=   1 IRICut=       1 DoRegI=T DoRafI=F ISym2E= 0.
 FoFCou: FMM=F IPFlag=           0 FMFlag=      100000 FMFlg1=         800
         NFxFlg=           0 DoJE=F BraDBF=F KetDBF=F FulRan=T
         wScrn=  0.000000 ICntrl=    2127 IOpCl=  0 I1Cent=           0 NGrid=           0
         NMat0=    1 NMatS0=      1 NMatT0=    0 NMatD0=    1 NMtDS0=    0 NMtDT0=    0
 Symmetry not used in FoFCou.
 Defaulting to unpruned grid for atomic number  83.
 Defaulting to unpruned grid for atomic number  83.
 Defaulting to unpruned grid for atomic number  83.
 Defaulting to unpruned grid for atomic number  83.
 Leave Link  703 at Thu Mar  8 06:04:24 2018, MaxMem=   536870912 cpu:       801.1
 (Enter /share/apps//mg09/l716.exe)
 Dipole        =-1.45128293D-01-5.62414279D-01-4.91955722D-02
 ***** Axes restored to original set *****
 -------------------------------------------------------------------
 Center     Atomic                   Forces (Hartrees/Bohr)
 Number     Number              X              Y              Z
 -------------------------------------------------------------------
      1       83           0.011302586    0.000298081    0.002009103
      2       83          -0.004819217   -0.004863208    0.001644444
      3       32          -0.000883663    0.013968857   -0.005573410
      4       83          -0.009877141    0.001929327    0.001775076
      5       32           0.008684028   -0.001566129   -0.011844186
      6       83           0.003305166   -0.007856374   -0.000414882
      7       32          -0.001073788    0.008372602    0.011466361
      8       50           0.002578985   -0.005984109    0.009471225
      9       50          -0.009216955   -0.004299047   -0.008533732
 -------------------------------------------------------------------
 Cartesian Forces:  Max     0.013968857 RMS     0.006978752
 Force constants in Cartesian coordinates: 
                1             2             3             4             5 
      1  0.238959D+00
      2  0.101584D-01  0.148547D+00
      3  0.964903D-02  0.961145D-02  0.183931D+00
      4 -0.345113D-02 -0.390545D-03 -0.114171D-02  0.139756D+00
      5 -0.905334D-02  0.124289D-02  0.263935D-03  0.243438D-01  0.132671D+00
      6  0.182795D-02  0.153755D-02  0.540628D-02 -0.785990D-02 -0.199142D-01
      7 -0.519251D-01  0.288369D-01 -0.218910D-01  0.320973D-02 -0.168419D-04
      8 -0.578201D-02 -0.400881D-01  0.819506D-02 -0.795609D-02 -0.298660D-02
      9 -0.662525D-02  0.191362D-01 -0.291262D-01  0.305959D-02  0.528804D-02
     10 -0.672878D-02 -0.416210D-02 -0.499230D-03 -0.281509D-01 -0.940677D-02
     11  0.612252D-02  0.455166D-02 -0.277772D-04  0.210996D-01 -0.547685D-01
     12  0.672107D-03 -0.164545D-03  0.687168D-02 -0.218900D-02  0.117954D-01
     13 -0.386078D-01 -0.974067D-02 -0.348383D-01  0.235328D-02 -0.621680D-02
     14 -0.399461D-02 -0.210353D-01 -0.138998D-01 -0.331758D-02  0.305951D-02
     15  0.775536D-02 -0.490797D-02 -0.708669D-01  0.725868D-02  0.367974D-02
     16 -0.332356D-01 -0.253787D-01 -0.706170D-02 -0.535736D-01  0.233876D-01
     17  0.104981D-01 -0.449216D-01 -0.620646D-02 -0.113370D-01 -0.298618D-01
     18  0.187463D-02 -0.121053D-01 -0.184076D-01  0.161905D-01 -0.675516D-02
     19 -0.654613D-01  0.283222D-01  0.351756D-01  0.269940D-02 -0.553219D-02
     20  0.178569D-02 -0.298034D-01 -0.146553D-01 -0.596140D-02 -0.367240D-02
     21  0.355012D-02 -0.167218D-01 -0.423312D-01  0.155201D-02 -0.394640D-02
     22 -0.352706D-01 -0.241336D-01  0.237385D-01 -0.383763D-01 -0.544145D-02
     23 -0.586585D-02 -0.253923D-01  0.178722D-01 -0.156905D-01 -0.241713D-01
     24 -0.781297D-02  0.689279D-02 -0.368043D-01 -0.139084D-02  0.957949D-02
     25 -0.427848D-02 -0.351188D-02 -0.313116D-02 -0.244662D-01 -0.120640D-01
     26 -0.386888D-02  0.689931D-02 -0.115336D-02 -0.790220D-03 -0.215129D-01
     27 -0.108910D-01 -0.327828D-02  0.132757D-02 -0.154793D-01  0.916433D-05
                6             7             8             9            10 
      6  0.109035D+00
      7 -0.148880D-02  0.165215D+00
      8  0.227031D-02 -0.476860D-02  0.219145D+00
      9  0.341288D-02 -0.124435D-01 -0.346988D-01  0.172512D+00
     10  0.402483D-02 -0.569233D-01  0.275120D-02  0.160776D-01  0.187015D+00
     11 -0.450650D-02 -0.314445D-01 -0.416260D-01  0.178053D-01 -0.532134D-02
     12 -0.157453D-01  0.313214D-01  0.497960D-02 -0.335029D-01 -0.136309D-01
     13  0.423721D-02 -0.323861D-01  0.158086D-02  0.158922D-01 -0.152148D-02
     14 -0.107299D-02  0.238467D-01 -0.526155D-01 -0.258987D-01  0.251972D-02
     15  0.866768D-03  0.624102D-02  0.121038D-01 -0.381185D-01  0.824016D-02
     16  0.166411D-01  0.567119D-02  0.647255D-02 -0.533671D-03 -0.939925D-03
     17  0.818825D-02  0.165139D-02 -0.967891D-02  0.529154D-02  0.948712D-02
     18 -0.245199D-01  0.161181D-02 -0.155165D-02  0.664077D-02  0.314228D-02
     19  0.173713D-02 -0.181935D-01  0.265707D-02  0.668412D-03 -0.589205D-01
     20 -0.385216D-02  0.324165D-02 -0.355420D-01  0.265790D-01  0.297108D-02
     21  0.156957D-02  0.110130D-02 -0.151152D-01 -0.548291D-01 -0.393675D-02
     22 -0.309556D-01  0.515214D-02  0.299465D-02 -0.387452D-02 -0.251254D-02
     23 -0.805026D-02 -0.223109D-02  0.245187D-03  0.223459D-02  0.533132D-02
     24 -0.323014D-01  0.169051D-03  0.953710D-02 -0.285461D-03 -0.160867D-02
     25  0.118361D-01 -0.198201D-01  0.205038D-02 -0.122208D-01 -0.313181D-01
     26  0.254001D-01 -0.191156D-01 -0.368529D-01 -0.157371D-01 -0.417024D-02
     27 -0.477241D-01 -0.462122D-02  0.142798D-01 -0.267034D-01 -0.118093D-01
               11            12            13            14            15 
     11  0.134149D+00
     12  0.146586D-01  0.123931D+00
     13  0.519484D-02  0.247275D-02  0.146909D+00
     14  0.755712D-02  0.197515D-02  0.383074D-02  0.131708D+00
     15 -0.150673D-02  0.894027D-03 -0.246505D-01 -0.521827D-02  0.196070D+00
     16  0.101881D-02 -0.748674D-03 -0.242243D-01 -0.105319D-01  0.146491D-01
     17 -0.432565D-03 -0.142186D-02  0.109251D-01 -0.589087D-01  0.425241D-02
     18 -0.293195D-02  0.411295D-02  0.205629D-02  0.398863D-01 -0.458987D-01
     19 -0.162200D-01 -0.378288D-01  0.655798D-02 -0.303068D-02  0.257794D-02
     20 -0.275976D-01 -0.111177D-01  0.184445D-03  0.458340D-02 -0.749236D-02
     21 -0.131954D-01 -0.358922D-01  0.633551D-02 -0.188536D-02 -0.265617D-02
     22  0.618717D-02 -0.252469D-02  0.428976D-02  0.251666D-02 -0.135439D-02
     23  0.355858D-02  0.389677D-02  0.620721D-03  0.724908D-02  0.475419D-02
     24  0.382020D-02 -0.112400D-02  0.470052D-02  0.219355D-02 -0.428714D-02
     25  0.133630D-01  0.224558D-01 -0.633705D-01 -0.118390D-01 -0.207174D-01
     26 -0.253920D-01 -0.246014D-01 -0.637918D-02 -0.215971D-01 -0.566477D-02
     27 -0.141157D-01 -0.495451D-01  0.237943D-01  0.392000D-02 -0.360036D-01
               16            17            18            19            20 
     16  0.142664D+00
     17 -0.273431D-01  0.201748D+00
     18 -0.189497D-01  0.236381D-02  0.146998D+00
     19  0.418745D-02 -0.321761D-03 -0.209840D-02  0.141155D+00
     20  0.593946D-02 -0.261073D-02 -0.280290D-02 -0.123333D-01  0.140170D+00
     21  0.284773D-02 -0.745279D-02  0.230911D-02  0.232508D-02  0.378117D-01
     22 -0.147483D-01  0.677965D-02  0.135250D-01 -0.172584D-01  0.730142D-02
     23  0.532225D-02 -0.311066D-01 -0.261916D-01  0.498148D-02 -0.482067D-01
     24 -0.315532D-02  0.794418D-02 -0.477741D-01 -0.370072D-03 -0.166094D-01
     25 -0.258004D-01 -0.339436D-03 -0.173525D-01  0.523376D-02 -0.312907D-02
     26  0.211130D-01 -0.242270D-01  0.100884D-01  0.147722D-02  0.267988D-02
     27 -0.368891D-02 -0.129591D-01 -0.234607D-01 -0.218691D-02 -0.786086D-02
               21            22            23            24            25 
     21  0.163293D+00
     22 -0.844180D-02  0.949137D-01
     23  0.209104D-01  0.497512D-02  0.113773D+00
     24 -0.291856D-01  0.137382D-01 -0.201491D-01  0.155305D+00
     25 -0.533321D-02  0.381053D-02  0.255657D-02 -0.426985D-02  0.160009D+00
     26 -0.405157D-03 -0.117962D-02  0.405132D-02 -0.320882D-02  0.129135D-01
     27 -0.227790D-02 -0.385060D-02  0.472277D-02 -0.354338D-02  0.287330D-01
               26            27 
     26  0.115951D+00
     27  0.152822D-01  0.187931D+00
 Leave Link  716 at Thu Mar  8 06:04:24 2018, MaxMem=   536870912 cpu:         0.1
 (Enter /share/apps//mg09/l103.exe)

 GradGradGradGradGradGradGradGradGradGradGradGradGradGradGradGradGradGrad
 Berny optimization.
 Search for a local minimum.
 Step number   1 out of a maximum of  100
 All quantities printed in internal units (Hartrees-Bohrs-Radians)
 Second derivative matrix not updated -- first step.
 ITU=  0
     Eigenvalues ---    0.07977   0.11981   0.12139   0.12425   0.12686
     Eigenvalues ---    0.14078   0.14699   0.14912   0.16375   0.16707
     Eigenvalues ---    0.17823   0.21678   0.22572   0.23753   0.24256
     Eigenvalues ---    0.24831   0.27156   0.28416   0.30440   0.30670
     Eigenvalues ---    0.32378
 RFO step:  Lambda=-7.85007914D-03 EMin= 7.97680505D-02
 Linear search not attempted -- first point.
 TrRot=  0.000842  0.002313 -0.000605 -0.000001  0.000081 -0.000001
 MatCor failed.
 Variable       Old X    -DE/DX   Delta X   Delta X   Delta X     New X
                                 (Linear)    (Quad)   (Total)
    X1       -4.42755   0.01130   0.00000   0.05359   0.05439  -4.37316
    Y1       -1.75005   0.00030   0.00000   0.01395   0.01627  -1.73378
    Z1       -0.55948   0.00201   0.00000   0.01185   0.01160  -0.54788
    X2        3.08446  -0.00482   0.00000  -0.03775  -0.03700   3.04746
    Y2        3.09079  -0.00486   0.00000  -0.04263  -0.04032   3.05047
    Z2       -1.11587   0.00164   0.00000   0.01423   0.01338  -1.10249
    X3       -0.24962  -0.00088   0.00000  -0.00523  -0.00423  -0.25385
    Y3       -4.58056   0.01397   0.00000   0.07030   0.07261  -4.50795
    Z3        2.01183  -0.00557   0.00000  -0.02823  -0.02882   1.98301
    X4        4.13169  -0.00988   0.00000  -0.05970  -0.05890   4.07278
    Y4       -2.53186   0.00193   0.00000   0.02710   0.02941  -2.50245
    Z4       -0.53336   0.00178   0.00000   0.00672   0.00579  -0.52757
    X5       -2.73318   0.00868   0.00000   0.04878   0.04999  -2.68319
    Y5       -0.71365  -0.00157   0.00000  -0.01410  -0.01178  -0.72543
    Z5        4.56934  -0.01184   0.00000  -0.06782  -0.06821   4.50113
    X6       -2.17865   0.00331   0.00000   0.02273   0.02366  -2.15498
    Y6        3.56718  -0.00786   0.00000  -0.05457  -0.05225   3.51493
    Z6        1.13069  -0.00041   0.00000  -0.00912  -0.00955   1.12114
    X7       -0.33487  -0.00107   0.00000  -0.00377  -0.00320  -0.33808
    Y7       -3.87349   0.00837   0.00000   0.05097   0.05329  -3.82020
    Z7       -3.38389   0.01147   0.00000   0.06768   0.06710  -3.31679
    X8       -1.42789   0.00258   0.00000   0.02607   0.02656  -1.40133
    Y8        1.54144  -0.00598   0.00000  -0.04694  -0.04462   1.49682
    Z8       -4.43446   0.00947   0.00000   0.06606   0.06556  -4.36889
    X9        2.53868  -0.00922   0.00000  -0.05244  -0.05126   2.48741
    Y9        0.38162  -0.00430   0.00000  -0.02491  -0.02260   0.35902
    Z9        4.17771  -0.00853   0.00000  -0.05604  -0.05685   4.12086
         Item               Value     Threshold  Converged?
 Maximum Force            0.013969     0.000450     NO 
 RMS     Force            0.006979     0.000300     NO 
 Maximum Displacement     0.072614     0.001800     NO 
 RMS     Displacement     0.042343     0.001200     NO 
 Predicted change in Energy=-4.115318D-03
 Lowest energy point so far.  Saving SCF results.
 GradGradGradGradGradGradGradGradGradGradGradGradGradGradGradGradGradGrad

 Leave Link  103 at Thu Mar  8 06:04:24 2018, MaxMem=   536870912 cpu:         0.1
 (Enter /share/apps//mg09/l202.exe)
                          Input orientation:                          
 ---------------------------------------------------------------------
 Center     Atomic      Atomic             Coordinates (Angstroms)
 Number     Number       Type             X           Y           Z
 ---------------------------------------------------------------------
      1         83           0       -2.314178   -0.917476   -0.289925
      2         83           0        1.612648    1.614239   -0.583411
      3         32           0       -0.134331   -2.385504    1.049365
      4         83           0        2.155225   -1.324241   -0.279180
      5         32           0       -1.419885   -0.383883    2.381896
      6         83           0       -1.140368    1.860018    0.593279
      7         32           0       -0.178903   -2.021562   -1.755170
      8         50           0       -0.741552    0.792084   -2.311919
      9         50           0        1.316283    0.189986    2.180665
 ---------------------------------------------------------------------
                    Distance matrix (angstroms):
                    1          2          3          4          5
     1  Bi   0.000000
     2  Bi   4.681418   0.000000
     3  Ge   2.949668   4.660025   0.000000
     4  Bi   4.487888   3.003600   2.851908   0.000000
     5  Ge   2.867596   4.688474   2.726678   4.554889   0.000000
     6  Bi   3.142030   3.004015   4.386865   4.664936   2.883118
     7  Ge   2.815200   4.219208   2.828403   2.848325   4.619237
     8  Sn   3.079644   3.034129   4.665192   4.123370   4.886198
     9  Sn   4.528856   3.123530   3.165007   3.007914   2.802933
                    6          7          8          9
     6  Bi   0.000000
     7  Ge   4.637488   0.000000
     8  Sn   3.120852   2.922866   0.000000
     9  Sn   3.368076   4.755767   4.978003   0.000000
 Stoichiometry    Bi4Ge3Sn2
 Framework group  C1[X(Bi4Ge3Sn2)]
 Deg. of freedom    21
 Full point group                 C1      NOp   1
 RotChk:  IX=0 Diff= 1.19D-02
 Largest Abelian subgroup         C1      NOp   1
 Largest concise Abelian subgroup C1      NOp   1
                         Standard orientation:                         
 ---------------------------------------------------------------------
 Center     Atomic      Atomic             Coordinates (Angstroms)
 Number     Number       Type             X           Y           Z
 ---------------------------------------------------------------------
      1         83           0        2.317543    0.897675   -0.303706
      2         83           0       -1.627284   -1.608583   -0.573303
      3         32           0        0.153417    2.383685    1.041236
      4         83           0       -2.148965    1.334231   -0.274462
      5         32           0        1.431478    0.377033    2.373406
      6         83           0        1.129184   -1.869621    0.591964
      7         32           0        0.183235    2.012129   -1.762497
      8         50           0        0.724708   -0.806647   -2.314270
      9         50           0       -1.309304   -0.179120    2.185677
 ---------------------------------------------------------------------
 Rotational constants (GHZ):      0.1070938      0.0931638      0.0849522
 Leave Link  202 at Thu Mar  8 06:04:25 2018, MaxMem=   536870912 cpu:         0.1
 (Enter /share/apps//mg09/l301.exe)
 Standard basis: def2TZVP (5D, 7F)
 Ernie: Thresh=  0.10000D-02 Tol=  0.10000D-05 Strict=F.
 There are   519 symmetry adapted cartesian basis functions of A   symmetry.
 There are   444 symmetry adapted basis functions of A   symmetry.
   444 basis functions,   963 primitive gaussians,   519 cartesian basis functions
   116 alpha electrons      116 beta electrons
       nuclear repulsion energy      3600.3760608716 Hartrees.
 IExCor= 1009 DFT=T Ex+Corr=PBE1PBE ExCW=0 ScaHFX=  0.250000
 ScaDFX=  0.750000  0.750000  1.000000  1.000000 ScalE2=  1.000000  1.000000
 IRadAn=      0 IRanWt=     -1 IRanGd=            0 ICorTp=0 IEmpDi=  4
 NAtoms=    9 NActive=    9 NUniq=    9 SFac= 1.00D+00 NAtFMM=   60 NAOKFM=F Big=F
 Integral buffers will be    131072 words long.
 Raffenetti 2 integral format.
 Two-electron integral symmetry is turned on.
 Leave Link  301 at Thu Mar  8 06:04:25 2018, MaxMem=   536870912 cpu:         0.2
 (Enter /share/apps//mg09/l302.exe)
 NPDir=0 NMtPBC=     1 NCelOv=     1 NCel=       1 NClECP=     1 NCelD=      1
         NCelK=      1 NCelE2=     1 NClLst=     1 CellRange=     0.0.
 One-electron integrals computed using PRISM.
   1 Symmetry operations used in ECPInt.
 ECPInt:  NShTT=   10440 NPrTT=   41973 LenC2=    9698 LenP2D=   27607.
 LDataN:  DoStor=T MaxTD1= 8 Len=  415
 NBasis=   444 RedAO= T EigKep=  1.39D-03  NBF=   444
 NBsUse=   444 1.00D-06 EigRej= -1.00D+00 NBFU=   444
 Precomputing XC quadrature grid using
 IXCGrd= 4 IRadAn=           0 IRanWt=          -1 IRanGd=           0 AccXCQ= 0.00D+00.
 Defaulting to unpruned grid for atomic number  83.
 Defaulting to unpruned grid for atomic number  83.
 Defaulting to unpruned grid for atomic number  50.
 Generated NRdTot=       0 NPtTot=           0 NUsed=           0 NTot=          32
 NSgBfM=   503   503   507   507   507 MxSgAt=     9 MxSgA2=     9.
 Leave Link  302 at Thu Mar  8 06:04:36 2018, MaxMem=   536870912 cpu:        37.6
 (Enter /share/apps//mg09/l303.exe)
 DipDrv:  MaxL=1.
 Leave Link  303 at Thu Mar  8 06:04:36 2018, MaxMem=   536870912 cpu:         0.2
 (Enter /share/apps//mg09/l401.exe)
 Initial guess from the checkpoint file:  "Isomer_32.chk"
 B after Tr=     0.000000    0.000000    0.000000
         Rot=    0.999991    0.001314   -0.002190    0.003299 Ang=   0.48 deg.
 Guess basis will be translated and rotated to current coordinates.
 JPrj=2 DoOrth=T DoCkMO=T.
 Generating alternative initial guess.
 ExpMin= 4.62D-02 ExpMax= 4.66D+05 ExpMxC= 4.50D+03 IAcc=2 IRadAn=         4 AccDes= 0.00D+00
 Harris functional with IExCor= 1009 and IRadAn=       4 diagonalized for initial guess.
 HarFok:  IExCor= 1009 AccDes= 0.00D+00 IRadAn=         4 IDoV= 1 UseB2=F ITyADJ=14
 ICtDFT=  3500011 ScaDFX=  1.000000  1.000000  1.000000  1.000000
 Defaulting to unpruned grid for atomic number  83.
 Defaulting to unpruned grid for atomic number  83.
 Defaulting to unpruned grid for atomic number  83.
 Defaulting to unpruned grid for atomic number  83.
 FoFCou: FMM=F IPFlag=           0 FMFlag=      100000 FMFlg1=           0
         NFxFlg=           0 DoJE=T BraDBF=F KetDBF=T FulRan=T
         wScrn=  0.000000 ICntrl=     500 IOpCl=  0 I1Cent=   200000004 NGrid=           0
         NMat0=    1 NMatS0=      1 NMatT0=    0 NMatD0=    1 NMtDS0=    0 NMtDT0=    0
 Petite list used in FoFCou.
 Harris En= -7518.61565648312    
 Leave Link  401 at Thu Mar  8 06:04:39 2018, MaxMem=   536870912 cpu:        14.0
 (Enter /share/apps//mg09/l502.exe)
 Closed shell SCF:
 Using DIIS extrapolation, IDIIS=  1040.
 Integral symmetry usage will be decided dynamically.
 IVT=     1410107 IEndB=     1410107 NGot=   536870912 MDV=   536322046
 LenX=   536322046 LenY=   536052166
 Requested convergence on RMS density matrix=1.00D-08 within 768 cycles.
 Requested convergence on MAX density matrix=1.00D-06.
 Requested convergence on             energy=1.00D-06.
 No special actions if energy rises.
 Fock matrices will be formed incrementally for  20 cycles.

 Cycle   1  Pass 1  IDiag  1:
 FoFJK:  IHMeth= 1 ICntrl=       0 DoSepK=F KAlg= 0 I1Cent=   0 FoldK=F
 IRaf= 880000000 NMat=   1 IRICut=       1 DoRegI=T DoRafI=F ISym2E= 0.
 FoFCou: FMM=F IPFlag=           0 FMFlag=      100000 FMFlg1=           0
         NFxFlg=           0 DoJE=F BraDBF=F KetDBF=F FulRan=T
         wScrn=  0.000000 ICntrl=       0 IOpCl=  0 I1Cent=           0 NGrid=           0
         NMat0=    1 NMatS0=      1 NMatT0=    0 NMatD0=    1 NMtDS0=    0 NMtDT0=    0
 Symmetry not used in FoFCou.
 Defaulting to unpruned grid for atomic number  83.
 Defaulting to unpruned grid for atomic number  83.
 Defaulting to unpruned grid for atomic number  83.
 Defaulting to unpruned grid for atomic number  83.
 E= -7517.81529945047    
 DIIS: error= 4.77D-03 at cycle   1 NSaved=   1.
 NSaved= 1 IEnMin= 1 EnMin= -7517.81529945047     IErMin= 1 ErrMin= 4.77D-03
 ErrMax= 4.77D-03  0.00D+00 EMaxC= 1.00D-01 BMatC= 8.09D-03 BMatP= 8.09D-03
 IDIUse=3 WtCom= 9.52D-01 WtEn= 4.77D-02
 Coeff-Com:  0.100D+01
 Coeff-En:   0.100D+01
 Coeff:      0.100D+01
 Gap=     7.962 Goal=   None    Shift=    0.000
 GapD=    7.962 DampG=2.000 DampE=1.000 DampFc=2.0000 IDamp=-1.
 RMSDP=1.72D-04 MaxDP=4.03D-03              OVMax= 1.80D-02

 Cycle   2  Pass 1  IDiag  1:
 RMSU=  1.71D-04    CP:  1.00D+00
 E= -7517.81533937728     Delta-E=       -0.000039926812 Rises=F Damp=F
 DIIS: error= 1.42D-03 at cycle   2 NSaved=   2.
 NSaved= 2 IEnMin= 2 EnMin= -7517.81533937728     IErMin= 2 ErrMin= 1.42D-03
 ErrMax= 1.42D-03  0.00D+00 EMaxC= 1.00D-01 BMatC= 1.50D-03 BMatP= 8.09D-03
 IDIUse=3 WtCom= 9.86D-01 WtEn= 1.42D-02
 Coeff-Com:  0.194D+00 0.806D+00
 Coeff-En:   0.488D+00 0.512D+00
 Coeff:      0.199D+00 0.801D+00
 Gap=     0.118 Goal=   None    Shift=    0.000
 RMSDP=2.01D-04 MaxDP=8.21D-03 DE=-3.99D-05 OVMax= 1.60D-02

 Cycle   3  Pass 1  IDiag  1:
 RMSU=  1.83D-04    CP:  9.99D-01  5.37D-01
 E= -7517.81346571584     Delta-E=        0.001873661442 Rises=F Damp=F
 DIIS: error= 2.07D-03 at cycle   3 NSaved=   3.
 NSaved= 3 IEnMin= 2 EnMin= -7517.81533937728     IErMin= 2 ErrMin= 1.42D-03
 ErrMax= 2.07D-03  0.00D+00 EMaxC= 1.00D-01 BMatC= 3.62D-03 BMatP= 1.50D-03
 IDIUse=3 WtCom= 1.80D-01 WtEn= 8.20D-01
 Coeff-Com:  0.691D-02 0.607D+00 0.386D+00
 Coeff-En:   0.000D+00 0.671D+00 0.329D+00
 Coeff:      0.124D-02 0.659D+00 0.339D+00
 Gap=     0.119 Goal=   None    Shift=    0.000
 RMSDP=1.15D-04 MaxDP=4.82D-03 DE= 1.87D-03 OVMax= 1.20D-02

 Cycle   4  Pass 1  IDiag  1:
 RMSU=  4.44D-05    CP:  9.99D-01  8.01D-01  4.82D-01
 E= -7517.81632458048     Delta-E=       -0.002858864647 Rises=F Damp=F
 DIIS: error= 4.38D-04 at cycle   4 NSaved=   4.
 NSaved= 4 IEnMin= 4 EnMin= -7517.81632458048     IErMin= 4 ErrMin= 4.38D-04
 ErrMax= 4.38D-04  0.00D+00 EMaxC= 1.00D-01 BMatC= 2.21D-04 BMatP= 1.50D-03
 IDIUse=3 WtCom= 9.96D-01 WtEn= 4.38D-03
 Coeff-Com:  0.339D-04 0.444D+00 0.238D+00 0.319D+00
 Coeff-En:   0.000D+00 0.103D+00 0.000D+00 0.897D+00
 Coeff:      0.337D-04 0.442D+00 0.237D+00 0.321D+00
 Gap=     0.119 Goal=   None    Shift=    0.000
 RMSDP=3.86D-05 MaxDP=1.71D-03 DE=-2.86D-03 OVMax= 3.72D-03

 Cycle   5  Pass 1  IDiag  1:
 RMSU=  1.34D-05    CP:  9.99D-01  8.57D-01  4.40D-01  2.41D-01
 E= -7517.81650988822     Delta-E=       -0.000185307734 Rises=F Damp=F
 DIIS: error= 8.02D-05 at cycle   5 NSaved=   5.
 NSaved= 5 IEnMin= 5 EnMin= -7517.81650988822     IErMin= 5 ErrMin= 8.02D-05
 ErrMax= 8.02D-05  0.00D+00 EMaxC= 1.00D-01 BMatC= 1.28D-05 BMatP= 2.21D-04
 IDIUse=1 WtCom= 1.00D+00 WtEn= 0.00D+00
 Coeff-Com: -0.916D-03 0.219D+00 0.106D+00 0.231D+00 0.445D+00
 Coeff:     -0.916D-03 0.219D+00 0.106D+00 0.231D+00 0.445D+00
 Gap=     0.119 Goal=   None    Shift=    0.000
 RMSDP=9.67D-06 MaxDP=4.57D-04 DE=-1.85D-04 OVMax= 1.07D-03

 Cycle   6  Pass 1  IDiag  1:
 RMSU=  4.09D-06    CP:  9.99D-01  8.66D-01  4.32D-01  3.85D-01  6.11D-01
 E= -7517.81652292376     Delta-E=       -0.000013035544 Rises=F Damp=F
 DIIS: error= 2.06D-05 at cycle   6 NSaved=   6.
 NSaved= 6 IEnMin= 6 EnMin= -7517.81652292376     IErMin= 6 ErrMin= 2.06D-05
 ErrMax= 2.06D-05  0.00D+00 EMaxC= 1.00D-01 BMatC= 6.50D-07 BMatP= 1.28D-05
 IDIUse=1 WtCom= 1.00D+00 WtEn= 0.00D+00
 Coeff-Com: -0.542D-03 0.105D+00 0.509D-01 0.119D+00 0.269D+00 0.456D+00
 Coeff:     -0.542D-03 0.105D+00 0.509D-01 0.119D+00 0.269D+00 0.456D+00
 Gap=     0.119 Goal=   None    Shift=    0.000
 RMSDP=3.58D-06 MaxDP=1.59D-04 DE=-1.30D-05 OVMax= 5.60D-04

 Cycle   7  Pass 1  IDiag  1:
 RMSU=  2.89D-06    CP:  9.99D-01  8.69D-01  4.34D-01  3.86D-01  6.71D-01
                    CP:  5.39D-01
 E= -7517.81652304981     Delta-E=       -0.000000126052 Rises=F Damp=F
 DIIS: error= 2.51D-05 at cycle   7 NSaved=   7.
 NSaved= 7 IEnMin= 7 EnMin= -7517.81652304981     IErMin= 6 ErrMin= 2.06D-05
 ErrMax= 2.51D-05  0.00D+00 EMaxC= 1.00D-01 BMatC= 5.21D-07 BMatP= 6.50D-07
 IDIUse=1 WtCom= 1.00D+00 WtEn= 0.00D+00
 Coeff-Com: -0.164D-03 0.141D-01 0.761D-02 0.238D-01 0.852D-01 0.452D+00
 Coeff-Com:  0.418D+00
 Coeff:     -0.164D-03 0.141D-01 0.761D-02 0.238D-01 0.852D-01 0.452D+00
 Coeff:      0.418D+00
 Gap=     0.119 Goal=   None    Shift=    0.000
 RMSDP=2.24D-06 MaxDP=8.55D-05 DE=-1.26D-07 OVMax= 3.08D-04

 Cycle   8  Pass 1  IDiag  1:
 RMSU=  9.47D-07    CP:  9.99D-01  8.71D-01  4.36D-01  3.85D-01  6.92D-01
                    CP:  8.56D-01  5.00D-01
 E= -7517.81652368953     Delta-E=       -0.000000639713 Rises=F Damp=F
 DIIS: error= 5.04D-06 at cycle   8 NSaved=   8.
 NSaved= 8 IEnMin= 8 EnMin= -7517.81652368953     IErMin= 8 ErrMin= 5.04D-06
 ErrMax= 5.04D-06  0.00D+00 EMaxC= 1.00D-01 BMatC= 4.55D-08 BMatP= 5.21D-07
 IDIUse=1 WtCom= 1.00D+00 WtEn= 0.00D+00
 Coeff-Com:  0.135D-05-0.133D-01-0.552D-02-0.821D-02 0.157D-02 0.222D+00
 Coeff-Com:  0.289D+00 0.514D+00
 Coeff:      0.135D-05-0.133D-01-0.552D-02-0.821D-02 0.157D-02 0.222D+00
 Coeff:      0.289D+00 0.514D+00
 Gap=     0.119 Goal=   None    Shift=    0.000
 RMSDP=6.76D-07 MaxDP=4.25D-05 DE=-6.40D-07 OVMax= 7.69D-05

 Cycle   9  Pass 1  IDiag  1:
 RMSU=  2.74D-07    CP:  9.99D-01  8.71D-01  4.37D-01  3.87D-01  6.99D-01
                    CP:  8.84D-01  6.16D-01  5.43D-01
 E= -7517.81652373475     Delta-E=       -0.000000045227 Rises=F Damp=F
 DIIS: error= 1.42D-06 at cycle   9 NSaved=   9.
 NSaved= 9 IEnMin= 9 EnMin= -7517.81652373475     IErMin= 9 ErrMin= 1.42D-06
 ErrMax= 1.42D-06  0.00D+00 EMaxC= 1.00D-01 BMatC= 4.10D-09 BMatP= 4.55D-08
 IDIUse=1 WtCom= 1.00D+00 WtEn= 0.00D+00
 Coeff-Com:  0.193D-04-0.992D-02-0.420D-02-0.758D-02-0.953D-02 0.921D-01
 Coeff-Com:  0.138D+00 0.316D+00 0.486D+00
 Coeff:      0.193D-04-0.992D-02-0.420D-02-0.758D-02-0.953D-02 0.921D-01
 Coeff:      0.138D+00 0.316D+00 0.486D+00
 Gap=     0.119 Goal=   None    Shift=    0.000
 RMSDP=2.27D-07 MaxDP=1.26D-05 DE=-4.52D-08 OVMax= 2.94D-05

 Cycle  10  Pass 1  IDiag  1:
 RMSU=  1.50D-07    CP:  9.99D-01  8.71D-01  4.38D-01  3.89D-01  7.04D-01
                    CP:  8.87D-01  6.15D-01  6.38D-01  6.64D-01
 E= -7517.81652373766     Delta-E=       -0.000000002903 Rises=F Damp=F
 DIIS: error= 9.72D-07 at cycle  10 NSaved=  10.
 NSaved=10 IEnMin=10 EnMin= -7517.81652373766     IErMin=10 ErrMin= 9.72D-07
 ErrMax= 9.72D-07  0.00D+00 EMaxC= 1.00D-01 BMatC= 8.85D-10 BMatP= 4.10D-09
 IDIUse=1 WtCom= 1.00D+00 WtEn= 0.00D+00
 Coeff-Com:  0.138D-04-0.600D-02-0.252D-02-0.473D-02-0.728D-02 0.467D-01
 Coeff-Com:  0.735D-01 0.183D+00 0.357D+00 0.360D+00
 Coeff:      0.138D-04-0.600D-02-0.252D-02-0.473D-02-0.728D-02 0.467D-01
 Coeff:      0.735D-01 0.183D+00 0.357D+00 0.360D+00
 Gap=     0.119 Goal=   None    Shift=    0.000
 RMSDP=1.08D-07 MaxDP=4.71D-06 DE=-2.90D-09 OVMax= 1.13D-05

 Cycle  11  Pass 1  IDiag  1:
 RMSU=  6.39D-08    CP:  9.99D-01  8.71D-01  4.38D-01  3.89D-01  7.05D-01
                    CP:  8.89D-01  6.17D-01  6.39D-01  8.20D-01  5.10D-01
 E= -7517.81652373858     Delta-E=       -0.000000000924 Rises=F Damp=F
 DIIS: error= 3.56D-07 at cycle  11 NSaved=  11.
 NSaved=11 IEnMin=11 EnMin= -7517.81652373858     IErMin=11 ErrMin= 3.56D-07
 ErrMax= 3.56D-07  0.00D+00 EMaxC= 1.00D-01 BMatC= 1.41D-10 BMatP= 8.85D-10
 IDIUse=1 WtCom= 1.00D+00 WtEn= 0.00D+00
 Coeff-Com:  0.819D-06 0.240D-03 0.146D-03 0.869D-04-0.108D-02-0.860D-02
 Coeff-Com: -0.110D-01-0.110D-01 0.473D-01 0.298D+00 0.686D+00
 Coeff:      0.819D-06 0.240D-03 0.146D-03 0.869D-04-0.108D-02-0.860D-02
 Coeff:     -0.110D-01-0.110D-01 0.473D-01 0.298D+00 0.686D+00
 Gap=     0.119 Goal=   None    Shift=    0.000
 RMSDP=4.73D-08 MaxDP=1.84D-06 DE=-9.24D-10 OVMax= 7.45D-06

 Cycle  12  Pass 1  IDiag  1:
 RMSU=  1.80D-08    CP:  9.99D-01  8.71D-01  4.38D-01  3.89D-01  7.05D-01
                    CP:  8.93D-01  6.22D-01  6.44D-01  8.43D-01  7.32D-01
                    CP:  8.33D-01
 E= -7517.81652373881     Delta-E=       -0.000000000226 Rises=F Damp=F
 DIIS: error= 7.22D-08 at cycle  12 NSaved=  12.
 NSaved=12 IEnMin=12 EnMin= -7517.81652373881     IErMin=12 ErrMin= 7.22D-08
 ErrMax= 7.22D-08  0.00D+00 EMaxC= 1.00D-01 BMatC= 7.18D-12 BMatP= 1.41D-10
 IDIUse=1 WtCom= 1.00D+00 WtEn= 0.00D+00
 Coeff-Com: -0.532D-06 0.510D-03 0.239D-03 0.341D-03 0.289D-04-0.697D-02
 Coeff-Com: -0.103D-01-0.163D-01-0.788D-03 0.121D+00 0.347D+00 0.565D+00
 Coeff:     -0.532D-06 0.510D-03 0.239D-03 0.341D-03 0.289D-04-0.697D-02
 Coeff:     -0.103D-01-0.163D-01-0.788D-03 0.121D+00 0.347D+00 0.565D+00
 Gap=     0.119 Goal=   None    Shift=    0.000
 RMSDP=1.11D-08 MaxDP=4.90D-07 DE=-2.26D-10 OVMax= 1.44D-06

 Cycle  13  Pass 1  IDiag  1:
 RMSU=  7.01D-09    CP:  9.99D-01  8.71D-01  4.38D-01  3.89D-01  7.05D-01
                    CP:  8.94D-01  6.21D-01  6.47D-01  8.54D-01  7.40D-01
                    CP:  8.99D-01  7.51D-01
 E= -7517.81652373898     Delta-E=       -0.000000000171 Rises=F Damp=F
 DIIS: error= 2.74D-08 at cycle  13 NSaved=  13.
 NSaved=13 IEnMin=13 EnMin= -7517.81652373898     IErMin=13 ErrMin= 2.74D-08
 ErrMax= 2.74D-08  0.00D+00 EMaxC= 1.00D-01 BMatC= 9.19D-13 BMatP= 7.18D-12
 IDIUse=1 WtCom= 1.00D+00 WtEn= 0.00D+00
 Coeff-Com: -0.415D-06 0.259D-03 0.117D-03 0.183D-03 0.175D-03-0.284D-02
 Coeff-Com: -0.447D-02-0.802D-02-0.803D-02 0.266D-01 0.986D-01 0.316D+00
 Coeff-Com:  0.581D+00
 Coeff:     -0.415D-06 0.259D-03 0.117D-03 0.183D-03 0.175D-03-0.284D-02
 Coeff:     -0.447D-02-0.802D-02-0.803D-02 0.266D-01 0.986D-01 0.316D+00
 Coeff:      0.581D+00
 Gap=     0.119 Goal=   None    Shift=    0.000
 RMSDP=4.12D-09 MaxDP=3.23D-07 DE=-1.71D-10 OVMax= 4.38D-07

 SCF Done:  E(RPBE1PBE) =  -7517.81652374     A.U. after   13 cycles
            NFock= 13  Conv=0.41D-08     -V/T= 2.1284
 KE= 6.662185265306D+03 PE=-2.479220842582D+04 EE= 7.011830575899D+03
 Leave Link  502 at Thu Mar  8 06:16:18 2018, MaxMem=   536870912 cpu:      2688.3
 (Enter /share/apps//mg09/l701.exe)
 Compute integral first derivatives.
 ... and contract with generalized density number  0.
   1 Symmetry operations used in ECPInt.
 ECPInt:  NShTT=   10440 NPrTT=   41973 LenC2=    9698 LenP2D=   27607.
 LDataN:  DoStor=T MaxTD1= 9 Len=  602
 Leave Link  701 at Thu Mar  8 06:16:42 2018, MaxMem=   536870912 cpu:        89.2
 (Enter /share/apps//mg09/l702.exe)
 L702 exits ... SP integral derivatives will be done elsewhere.
 Leave Link  702 at Thu Mar  8 06:16:42 2018, MaxMem=   536870912 cpu:         0.0
 (Enter /share/apps//mg09/l703.exe)
 Compute integral first derivatives, UseDBF=F ICtDFT=           0.
 Integral derivatives from FoFJK, PRISM(SPDF).
 Calling FoFJK, ICntrl=      2127 FMM=F ISym2X=0 I1Cent= 0 IOpClX= 0 NMat=1 NMatS=1 NMatT=0.
 FoFJK:  IHMeth= 1 ICntrl=    2127 DoSepK=F KAlg= 0 I1Cent=   0 FoldK=F
 IRaf=         0 NMat=   1 IRICut=       1 DoRegI=T DoRafI=F ISym2E= 0.
 FoFCou: FMM=F IPFlag=           0 FMFlag=      100000 FMFlg1=         800
         NFxFlg=           0 DoJE=F BraDBF=F KetDBF=F FulRan=T
         wScrn=  0.000000 ICntrl=    2127 IOpCl=  0 I1Cent=           0 NGrid=           0
         NMat0=    1 NMatS0=      1 NMatT0=    0 NMatD0=    1 NMtDS0=    0 NMtDT0=    0
 Symmetry not used in FoFCou.
 Defaulting to unpruned grid for atomic number  83.
 Defaulting to unpruned grid for atomic number  83.
 Defaulting to unpruned grid for atomic number  83.
 Defaulting to unpruned grid for atomic number  83.
 Leave Link  703 at Thu Mar  8 06:20:19 2018, MaxMem=   536870912 cpu:       821.7
 (Enter /share/apps//mg09/l716.exe)
 Dipole        =-1.56549361D-01-5.79352352D-01-6.00157246D-02
 ***** Axes restored to original set *****
 -------------------------------------------------------------------
 Center     Atomic                   Forces (Hartrees/Bohr)
 Number     Number              X              Y              Z
 -------------------------------------------------------------------
      1       83           0.003280061   -0.001092797    0.000343503
      2       83          -0.000269577    0.000261562   -0.000061630
      3       32          -0.000303427    0.008073401   -0.002695110
      4       83          -0.003147822   -0.001680752    0.000227644
      5       32           0.004703158   -0.001820340   -0.005408284
      6       83           0.000429387   -0.001631048    0.001223376
      7       32          -0.000564553    0.003730197    0.006163791
      8       50           0.001103917   -0.003392208    0.003583549
      9       50          -0.005231144   -0.002448015   -0.003376838
 -------------------------------------------------------------------
 Cartesian Forces:  Max     0.008073401 RMS     0.003215211
 Leave Link  716 at Thu Mar  8 06:20:19 2018, MaxMem=   536870912 cpu:         0.1
 (Enter /share/apps//mg09/l103.exe)

 GradGradGradGradGradGradGradGradGradGradGradGradGradGradGradGradGradGrad
 Berny optimization.
 Search for a local minimum.
 Step number   2 out of a maximum of  100
 All quantities printed in internal units (Hartrees-Bohrs-Radians)
 Update second derivatives using D2CorN and points    1    2
 DE= -5.59D-03 DEPred=-4.12D-03 R= 1.36D+00
 TightC=F SS=  1.41D+00  RLast= 2.20D-01 DXNew= 5.0454D-01 6.6006D-01
 Trust test= 1.36D+00 RLast= 2.20D-01 DXMaxT set to 5.05D-01
 ITU=  1  0
     Eigenvalues ---    0.07808   0.09385   0.11983   0.12310   0.12503
     Eigenvalues ---    0.12904   0.14335   0.14811   0.15970   0.16689
     Eigenvalues ---    0.17825   0.21659   0.22340   0.23748   0.24183
     Eigenvalues ---    0.24638   0.27124   0.28444   0.30452   0.30617
     Eigenvalues ---    0.32383
 RFO step:  Lambda=-4.53632021D-04 EMin= 7.80819008D-02
 Quartic linear search produced a step of  0.61808.
 TrRot=  0.000033  0.000064  0.000075  0.000009  0.000027  0.000009
 Variable       Old X    -DE/DX   Delta X   Delta X   Delta X     New X
                                 (Linear)    (Quad)   (Total)
    X1       -4.37316   0.00328   0.03362  -0.00781   0.02586  -4.34730
    Y1       -1.73378  -0.00109   0.01005  -0.00584   0.00420  -1.72958
    Z1       -0.54788   0.00034   0.00717  -0.00213   0.00523  -0.54265
    X2        3.04746  -0.00027  -0.02287   0.01428  -0.00865   3.03882
    Y2        3.05047   0.00026  -0.02492   0.02027  -0.00453   3.04594
    Z2       -1.10249  -0.00006   0.00827  -0.00458   0.00369  -1.09880
    X3       -0.25385  -0.00030  -0.00262  -0.00081  -0.00325  -0.25710
    Y3       -4.50795   0.00807   0.04488   0.01380   0.05874  -4.44921
    Z3        1.98301  -0.00270  -0.01781  -0.00327  -0.02100   1.96202
    X4        4.07278  -0.00315  -0.03641   0.00627  -0.03007   4.04271
    Y4       -2.50245  -0.00168   0.01817  -0.01682   0.00150  -2.50096
    Z4       -0.52757   0.00023   0.00358  -0.00359  -0.00005  -0.52762
    X5       -2.68319   0.00470   0.03090   0.00547   0.03654  -2.64666
    Y5       -0.72543  -0.00182  -0.00728  -0.01084  -0.01811  -0.74355
    Z5        4.50113  -0.00541  -0.04216  -0.00738  -0.04939   4.45174
    X6       -2.15498   0.00043   0.01463  -0.00776   0.00686  -2.14812
    Y6        3.51493  -0.00163  -0.03229   0.00986  -0.02241   3.49251
    Z6        1.12114   0.00122  -0.00590   0.00969   0.00392   1.12505
    X7       -0.33808  -0.00056  -0.00198  -0.00309  -0.00505  -0.34313
    Y7       -3.82020   0.00373   0.03294  -0.00115   0.03185  -3.78835
    Z7       -3.31679   0.00616   0.04147   0.01420   0.05575  -3.26104
    X8       -1.40133   0.00110   0.01642   0.00141   0.01771  -1.38362
    Y8        1.49682  -0.00339  -0.02758  -0.00590  -0.03345   1.46337
    Z8       -4.36889   0.00358   0.04052  -0.00165   0.03898  -4.32991
    X9        2.48741  -0.00523  -0.03168  -0.00840  -0.03994   2.44747
    Y9        0.35902  -0.00245  -0.01397  -0.00393  -0.01779   0.34124
    Z9        4.12086  -0.00338  -0.03514  -0.00201  -0.03714   4.08372
         Item               Value     Threshold  Converged?
 Maximum Force            0.008073     0.000450     NO 
 RMS     Force            0.003215     0.000300     NO 
 Maximum Displacement     0.058742     0.001800     NO 
 RMS     Displacement     0.027682     0.001200     NO 
[...]
     X         X X    X                  XX                                                                                          
     X         X X                       XX                                                                                          
     X         X X                       XX                                                                                          
     X           X                       X                                                                                           
     X                                   X                                                                                           
                                         X                                                                                           
                                         X                                                                                           
                                         X                                                                                           
                                         X                                                                                           
                                         X                                                                                           
                                         X                                                                                           
                                         X                                                                                           
                                         X                                                                                           
                                         X                                                                                           
                                         X                                                                                           
 
 ***** Axes restored to original set *****
 -------------------------------------------------------------------
 Center     Atomic                   Forces (Hartrees/Bohr)
 Number     Number              X              Y              Z
 -------------------------------------------------------------------
      1       83           0.000051604    0.000056219    0.000002460
      2       83           0.000058669    0.000063484    0.000001553
      3       32           0.000055509   -0.000005004    0.000058440
      4       83          -0.000082142    0.000008509   -0.000038074
      5       32          -0.000045066    0.000013848   -0.000028262
      6       83          -0.000010808   -0.000040389    0.000010181
      7       32          -0.000039329   -0.000029679   -0.000006925
      8       50           0.000025902   -0.000019167   -0.000027376
      9       50          -0.000014340   -0.000047821    0.000028004
 -------------------------------------------------------------------
 Cartesian Forces:  Max     0.000082142 RMS     0.000038734
 Force constants in Cartesian coordinates: 
                1             2             3             4             5 
      1  0.864246D-01
      2  0.527301D-02  0.446997D-01
      3  0.903827D-03  0.381456D-02  0.690529D-01
      4 -0.333979D-02 -0.473131D-02  0.194110D-02  0.739403D-01
      5  0.814529D-03 -0.143460D-02 -0.152614D-02  0.609704D-02  0.663052D-01
      6  0.106870D-02 -0.288871D-02 -0.474911D-05 -0.652456D-02 -0.134639D-01
      7 -0.167905D-01  0.101593D-01 -0.940060D-02  0.268979D-02 -0.655056D-02
      8  0.805446D-02 -0.633162D-02  0.711603D-02  0.170389D-02 -0.523513D-02
      9 -0.823146D-02  0.954924D-02 -0.572688D-02 -0.119854D-02  0.778987D-03
     10 -0.624075D-02  0.190786D-02  0.126857D-02 -0.498516D-02  0.909036D-02
     11 -0.902007D-03 -0.269891D-02  0.173389D-02  0.819063D-02 -0.445465D-01
     12 -0.648973D-03  0.339155D-02 -0.592077D-03  0.333493D-02  0.511761D-02
     13 -0.858814D-02 -0.322385D-02 -0.122278D-01 -0.220361D-02  0.584141D-03
     14 -0.362245D-02  0.948869D-03 -0.630198D-02 -0.327194D-02 -0.502531D-03
     15 -0.111603D-01 -0.616718D-02 -0.352410D-01  0.211067D-03 -0.586121D-03
     16 -0.629977D-02 -0.815697D-02 -0.471188D-03 -0.385401D-01  0.471268D-02
     17 -0.920045D-02 -0.194464D-01 -0.681814D-02  0.491388D-02 -0.526503D-02
     18 -0.988112D-03 -0.864072D-02 -0.490036D-03  0.153347D-01  0.119957D-03
     19 -0.309491D-01  0.136000D-01  0.159636D-01 -0.178976D-02 -0.258257D-02
     20  0.113184D-01 -0.558694D-02 -0.939166D-02  0.147654D-02 -0.327452D-02
     21  0.134616D-01 -0.125326D-01 -0.102985D-01  0.110630D-03  0.207375D-02
     22 -0.104860D-01 -0.132356D-01  0.885823D-02 -0.236556D-01 -0.906914D-02
     23 -0.121809D-01 -0.612677D-02  0.120532D-01 -0.993127D-02 -0.204807D-02
     24  0.714594D-02  0.140429D-01 -0.137498D-01 -0.145723D-01 -0.330534D-02
     25 -0.373065D-02 -0.159250D-02 -0.683573D-02 -0.211603D-02 -0.309648D-02
     26  0.445473D-03 -0.402336D-02 -0.679746D-03 -0.444746D-02 -0.399883D-02
     27 -0.155122D-02 -0.568977D-03 -0.294987D-02  0.136304D-02  0.107912D-01
                6             7             8             9            10 
      6  0.415339D-01
      7  0.117990D-02  0.548716D-01
      8  0.599923D-03 -0.604673D-02  0.602676D-01
      9 -0.500825D-02 -0.126223D-01 -0.104129D-01  0.514344D-01
     10  0.345548D-02 -0.254360D-01 -0.710556D-02  0.164612D-01  0.802119D-01
     11  0.640234D-02 -0.990140D-02 -0.633997D-02  0.819457D-02 -0.367752D-02
     12  0.587047D-03  0.183118D-01  0.404189D-02 -0.634495D-02 -0.121830D-01
     13  0.262742D-02 -0.841816D-02  0.840407D-02  0.103902D-01 -0.328890D-02
     14  0.362059D-02  0.130913D-01 -0.151714D-01 -0.117027D-01  0.966274D-04
     15 -0.161153D-02  0.103434D-01 -0.795149D-02 -0.966956D-02 -0.136325D-03
     16  0.185895D-01 -0.455622D-02 -0.153571D-02 -0.146275D-02 -0.597567D-03
     17  0.623484D-03  0.214264D-02 -0.935673D-02 -0.133975D-02  0.732605D-03
     18 -0.473635D-02 -0.278422D-02  0.513850D-02  0.175542D-02 -0.166104D-02
     19 -0.398471D-02  0.219709D-02  0.138819D-02 -0.326254D-03 -0.312911D-01
     20 -0.339894D-02  0.621824D-03 -0.501414D-02  0.262441D-02 -0.571169D-02
     21  0.179453D-02 -0.831824D-03  0.157095D-02 -0.196899D-01 -0.151338D-01
     22 -0.156722D-01 -0.361627D-02 -0.499335D-04  0.985514D-03 -0.160122D-02
     23 -0.293353D-02  0.319629D-02 -0.329536D-02  0.590433D-02 -0.817231D-03
     24 -0.137448D-01  0.131594D-03  0.449370D-03 -0.334157D-02  0.138171D-03
     25 -0.739512D-03 -0.941340D-03 -0.481268D-02 -0.399560D-02 -0.677120D-02
     26  0.114387D-01 -0.671270D-02 -0.952331D-02 -0.359614D-02  0.548455D-02
     27 -0.188099D-01 -0.432766D-02 -0.552273D-03 -0.340877D-02  0.779079D-02
               11            12            13            14            15 
     11  0.677474D-01
     12  0.111331D-01  0.489454D-01
     13 -0.772485D-03  0.362855D-02  0.631289D-01
     14 -0.479185D-02 -0.507530D-03  0.282676D-02  0.418564D-01
     15 -0.113138D-03 -0.223949D-02 -0.975519D-02  0.494462D-03  0.735502D-01
     16  0.100362D-01 -0.127084D-02 -0.252739D-02 -0.112226D-02  0.481035D-02
     17  0.581789D-03 -0.140944D-02  0.422640D-04 -0.226258D-01  0.147798D-01
     18 -0.258764D-02 -0.299623D-02  0.341825D-02  0.141464D-01 -0.143188D-01
     19 -0.927698D-02 -0.152777D-01 -0.389500D-03  0.274806D-02  0.196855D-02
     20 -0.130427D-02 -0.630595D-02  0.122037D-02 -0.124064D-02  0.946803D-03
     21 -0.825754D-02 -0.119334D-01 -0.179586D-02 -0.228358D-02 -0.474850D-02
     22  0.167734D-02 -0.517394D-02  0.593847D-03 -0.201596D-02  0.222397D-02
     23 -0.240062D-02  0.155988D-02 -0.113258D-02  0.783983D-03 -0.124290D-02
     24 -0.131590D-03 -0.828473D-03 -0.258517D-02  0.220888D-02 -0.352306D-02
     25  0.462623D-02  0.927924D-02 -0.383071D-01 -0.873014D-02  0.149451D-02
     26 -0.624711D-02 -0.170211D-01 -0.794869D-02  0.742891D-03 -0.160247D-03
     27 -0.163740D-01 -0.245979D-01  0.629958D-02  0.325530D-03 -0.219827D-02
               16            17            18            19            20 
     16  0.570363D-01
     17 -0.887601D-02  0.722396D-01
     18 -0.174294D-01  0.394066D-02  0.465708D-01
     19 -0.195065D-02  0.239751D-02  0.332721D-02  0.641054D-01
     20 -0.307853D-02 -0.429714D-02 -0.712376D-02 -0.968789D-02  0.477873D-01
     21  0.762073D-03 -0.180794D-02 -0.184878D-02  0.155233D-02  0.179670D-01
     22  0.274876D-02  0.306739D-02  0.418545D-02 -0.632199D-03  0.418087D-02
     23  0.210686D-02 -0.880219D-02 -0.612154D-02  0.629002D-02 -0.236713D-01
     24  0.154328D-02 -0.857650D-02 -0.200224D-01  0.220903D-04  0.332538D-02
     25 -0.531338D-02  0.478019D-02 -0.340279D-02  0.699881D-03 -0.339881D-03
     26  0.591376D-02 -0.302814D-02  0.112816D-02 -0.487635D-02 -0.339834D-02
     27 -0.507101D-02  0.607809D-03 -0.391360D-02 -0.324514D-02  0.135669D-02
               21            22            23            24            25 
     21  0.578032D-01
     22 -0.441618D-03  0.382766D-01
     23  0.575948D-02  0.107804D-01  0.446552D-01
     24 -0.561494D-02  0.778048D-02 -0.107858D-01  0.651759D-01
     25  0.231644D-02 -0.162790D-02  0.168844D-02  0.395965D-03  0.581077D-01
     26 -0.248952D-02  0.466460D-02  0.905064D-03  0.277271D-02  0.747682D-02
     27 -0.546374D-02 -0.274586D-02 -0.419314D-02 -0.435087D-02  0.148747D-02
               26            27 
     26  0.285711D-01
     27  0.860720D-02  0.656929D-01
 Leave Link  716 at Thu Mar  8 09:11:30 2018, MaxMem=   536870912 cpu:         0.1
 (Enter /share/apps//mg09/l103.exe)

 GradGradGradGradGradGradGradGradGradGradGradGradGradGradGradGradGradGrad
 Berny optimization.
 Search for a local minimum.
 Step number   1 out of a maximum of    2
 All quantities printed in internal units (Hartrees-Bohrs-Radians)
 Second derivative matrix not updated -- analytic derivatives used.
 ITU=  0
     Eigenvalues ---    0.00326   0.01836   0.02739   0.03363   0.04517
     Eigenvalues ---    0.04788   0.05331   0.05489   0.05698   0.05969
     Eigenvalues ---    0.06550   0.06876   0.08104   0.09089   0.10215
     Eigenvalues ---    0.10502   0.12181   0.12834   0.12962   0.13424
     Eigenvalues ---    0.13983
 Angle between quadratic step and forces=  52.73 degrees.
 Linear search not attempted -- first point.
 TrRot= -0.000104 -0.000048  0.000040  1.081879  0.000099 -1.081889
 Variable       Old X    -DE/DX   Delta X   Delta X   Delta X     New X
                                 (Linear)    (Quad)   (Total)
    X1       -4.38624   0.00005   0.00000  -0.00048  -0.00063  -4.38686
    Y1       -1.72559   0.00006   0.00000   0.00351   0.00346  -1.72213
    Z1       -0.55541   0.00000   0.00000   0.00090   0.00129  -0.55412
    X2        3.05251   0.00006   0.00000   0.00060   0.00048   3.05299
    Y2        3.06940   0.00006   0.00000   0.01091   0.01073   3.08013
    Z2       -1.09751   0.00000   0.00000   0.01139   0.01102  -1.08650
    X3       -0.23158   0.00006   0.00000   0.00429   0.00423  -0.22735
    Y3       -4.40276  -0.00001   0.00000   0.00173   0.00186  -4.40090
    Z3        1.95856   0.00006   0.00000   0.00374   0.00418   1.96274
    X4        4.06072  -0.00008   0.00000  -0.00584  -0.00599   4.05473
    Y4       -2.50660   0.00001   0.00000   0.00689   0.00675  -2.49986
    Z4       -0.55140  -0.00004   0.00000  -0.01265  -0.01258  -0.56397
    X5       -2.65303  -0.00005   0.00000  -0.00025  -0.00016  -2.65318
    Y5       -0.77299   0.00001   0.00000   0.00345   0.00382  -0.76917
    Z5        4.43688  -0.00003   0.00000  -0.00032  -0.00009   4.43678
    X6       -2.13913  -0.00001   0.00000  -0.00626  -0.00628  -2.14541
    Y6        3.50769  -0.00004   0.00000  -0.00075  -0.00068   3.50702
    Z6        1.14623   0.00001   0.00000  -0.00487  -0.00503   1.14120
    X7       -0.35955  -0.00004   0.00000  -0.00709  -0.00738  -0.36693
    Y7       -3.79824  -0.00003   0.00000  -0.00863  -0.00896  -3.80720
    Z7       -3.22520  -0.00001   0.00000   0.00131   0.00170  -3.22351
    X8       -1.36269   0.00003   0.00000   0.01252   0.01223  -1.35046
    Y8        1.43420  -0.00002   0.00000  -0.00642  -0.00683   1.42737
    Z8       -4.31691  -0.00003   0.00000  -0.00092  -0.00095  -4.31785
    X9        2.42205  -0.00001   0.00000   0.00340   0.00349   2.42555
    Y9        0.32630  -0.00005   0.00000  -0.01044  -0.01016   0.31615
    Z9        4.06728   0.00003   0.00000   0.00056   0.00046   4.06774
         Item               Value     Threshold  Converged?
 Maximum Force            0.000082     0.000450     YES
 RMS     Force            0.000039     0.000300     YES
 Maximum Displacement     0.012578     0.001800     NO 
 RMS     Displacement     0.006264     0.001200     NO 
 Predicted change in Energy=-1.977000D-06
 GradGradGradGradGradGradGradGradGradGradGradGradGradGradGradGradGradGrad

 Leave Link  103 at Thu Mar  8 09:11:30 2018, MaxMem=   536870912 cpu:         0.1
 (Enter /share/apps//mg09/l9999.exe)
 1\1\GINC-COMPUTE-0-1\Freq\RPBE1PBE\def2TZVP\Bi4Ge3Sn2\RODRIGO\08-Mar-2
 018\0\\#P Geom=AllCheck Guess=TCheck SCRF=Check GenChk RPBE1PBE/def2TZ
 VP Freq\\01Final_coords.xyz_32\\0,1\Bi,-2.3210969097,-0.9131428439,-0.
 2939100232\Bi,1.6153210215,1.6242580918,-0.580779713\Ge,-0.1225489781,
 -2.3298385185,1.0364244835\Bi,2.148840955,-1.3264364458,-0.2917860143\
 Ge,-1.403921078,-0.4090480673,2.347893756\Bi,-1.131980776,1.8561916984
 ,0.6065611197\Ge,-0.190265864,-2.0099419902,-1.7067047755\Sn,-0.721103
 5945,0.7589474591,-2.2844089042\Sn,1.2816952229,0.1726726166,2.1523110
 708\\Version=ES64L-G09RevD.01\State=1-A\HF=-7517.8181753\RMSD=6.287e-0
 9\RMSF=3.873e-05\ZeroPoint=0.0057926\Thermal=0.0232904\Dipole=0.161634
 3,0.6043783,-0.0782842\DipoleDeriv=0.1213807,0.057579,0.0113426,-0.012
 8891,0.11872,0.0465075,-0.0704492,0.0319514,-0.063781,-0.1163439,0.109
 9863,-0.1057684,0.072554,0.0166128,0.0046457,-0.0563592,0.0857434,-0.1
 860888,-0.0359675,0.0419506,0.0539623,0.0272102,0.0326679,-0.0292569,0
 .0674265,0.004302,-0.0565107,0.0538022,-0.1525296,-0.0246109,-0.132087
 5,-0.0243274,-0.0744744,0.0181478,-0.0895729,-0.0374865,-0.0855988,0.0
 228568,-0.2479247,-0.0088326,-0.1469554,-0.0290029,-0.1489829,-0.05788
 44,0.0609401,0.0797394,-0.0725415,0.0363815,0.008231,-0.0006558,-0.008
 358,0.0600209,0.0135617,0.0319865,-0.1481796,0.0539705,0.0054046,0.090
 9903,-0.0446128,0.1818523,-0.0046898,0.1010502,-0.1569441,0.0196761,-0
 .0398603,0.1008894,-0.0599166,-0.0286886,-0.1737814,0.0512154,-0.08272
 41,0.2155097,0.1114914,-0.0214118,0.1703238,0.0147403,0.0772393,0.0818
 681,0.0836705,-0.0064272,0.1923748\Polar=378.026928,2.0497786,367.9210
 838,7.5281135,-3.2416226,388.5385624\PG=C01 [X(Bi4Ge3Sn2)]\NImag=0\\0.
 08642464,0.00527301,0.04469972,0.00090383,0.00381456,0.06905290,-0.003
 33979,-0.00473131,0.00194110,0.07394029,0.00081453,-0.00143460,-0.0015
 2614,0.00609704,0.06630520,0.00106870,-0.00288871,-0.00000475,-0.00652
 456,-0.01346388,0.04153394,-0.01679051,0.01015933,-0.00940060,0.002689
 79,-0.00655056,0.00117990,0.05487162,0.00805446,-0.00633162,0.00711603
 ,0.00170389,-0.00523513,0.00059992,-0.00604673,0.06026763,-0.00823146,
 0.00954924,-0.00572688,-0.00119854,0.00077899,-0.00500825,-0.01262232,
 -0.01041290,0.05143444,-0.00624075,0.00190786,0.00126857,-0.00498516,0
 .00909036,0.00345548,-0.02543600,-0.00710556,0.01646118,0.08021195,-0.
 00090201,-0.00269891,0.00173389,0.00819063,-0.04454647,0.00640234,-0.0
 0990140,-0.00633997,0.00819457,-0.00367752,0.06774741,-0.00064897,0.00
 339155,-0.00059208,0.00333493,0.00511761,0.00058705,0.01831177,0.00404
 189,-0.00634495,-0.01218304,0.01113313,0.04894542,-0.00858814,-0.00322
 385,-0.01222782,-0.00220361,0.00058414,0.00262742,-0.00841816,0.008404
 07,0.01039023,-0.00328890,-0.00077249,0.00362855,0.06312893,-0.0036224
 5,0.00094887,-0.00630198,-0.00327194,-0.00050253,0.00362059,0.01309131
 ,-0.01517136,-0.01170274,0.00009663,-0.00479185,-0.00050753,0.00282676
 ,0.04185642,-0.01116031,-0.00616718,-0.03524098,0.00021107,-0.00058612
 ,-0.00161153,0.01034338,-0.00795149,-0.00966956,-0.00013633,-0.0001131
 4,-0.00223949,-0.00975519,0.00049446,0.07355022,-0.00629977,-0.0081569
 7,-0.00047119,-0.03854011,0.00471268,0.01858951,-0.00455622,-0.0015357
 1,-0.00146275,-0.00059757,0.01003619,-0.00127084,-0.00252739,-0.001122
 26,0.00481035,0.05703632,-0.00920045,-0.01944640,-0.00681814,0.0049138
 8,-0.00526503,0.00062348,0.00214264,-0.00935673,-0.00133975,0.00073260
 ,0.00058179,-0.00140944,0.00004226,-0.02262578,0.01477981,-0.00887601,
 0.07223962,-0.00098811,-0.00864072,-0.00049004,0.01533467,0.00011996,-
 0.00473635,-0.00278422,0.00513850,0.00175542,-0.00166104,-0.00258764,-
 0.00299623,0.00341825,0.01414636,-0.01431884,-0.01742942,0.00394066,0.
 04657079,-0.03094907,0.01360001,0.01596362,-0.00178976,-0.00258257,-0.
 00398471,0.00219709,0.00138819,-0.00032625,-0.03129115,-0.00927698,-0.
 01527769,-0.00038950,0.00274806,0.00196855,-0.00195065,0.00239751,0.00
 332721,0.06410536,0.01131838,-0.00558694,-0.00939166,0.00147654,-0.003
 27452,-0.00339894,0.00062182,-0.00501414,0.00262441,-0.00571169,-0.001
 30427,-0.00630595,0.00122037,-0.00124064,0.00094680,-0.00307853,-0.004
 29714,-0.00712376,-0.00968789,0.04778727,0.01346161,-0.01253263,-0.010
 29850,0.00011063,0.00207375,0.00179453,-0.00083182,0.00157095,-0.01968
 988,-0.01513379,-0.00825754,-0.01193336,-0.00179586,-0.00228358,-0.004
 74850,0.00076207,-0.00180794,-0.00184878,0.00155233,0.01796703,0.05780
 317,-0.01048596,-0.01323557,0.00885823,-0.02365562,-0.00906914,-0.0156
 7222,-0.00361627,-0.00004993,0.00098551,-0.00160122,0.00167734,-0.0051
 7394,0.00059385,-0.00201596,0.00222397,0.00274876,0.00306739,0.0041854
 5,-0.00063220,0.00418087,-0.00044162,0.03827657,-0.01218093,-0.0061267
 7,0.01205319,-0.00993127,-0.00204807,-0.00293353,0.00319629,-0.0032953
 6,0.00590433,-0.00081723,-0.00240062,0.00155988,-0.00113258,0.00078398
 ,-0.00124290,0.00210686,-0.00880219,-0.00612154,0.00629002,-0.02367127
 ,0.00575948,0.01078041,0.04465523,0.00714594,0.01404286,-0.01374981,-0
 .01457235,-0.00330534,-0.01374478,0.00013159,0.00044937,-0.00334157,0.
 00013817,-0.00013159,-0.00082847,-0.00258517,0.00220888,-0.00352306,0.
 00154328,-0.00857650,-0.02002236,0.00002209,0.00332538,-0.00561494,0.0
 0778048,-0.01078577,0.06517587,-0.00373065,-0.00159250,-0.00683573,-0.
 00211603,-0.00309648,-0.00073951,-0.00094134,-0.00481268,-0.00399560,-
 0.00677120,0.00462623,0.00927924,-0.03830708,-0.00873014,0.00149451,-0
 .00531338,0.00478019,-0.00340279,0.00069988,-0.00033988,0.00231644,-0.
 00162790,0.00168844,0.00039597,0.05810769,0.00044547,-0.00402336,-0.00
 067975,-0.00444746,-0.00399883,0.01143873,-0.00671270,-0.00952331,-0.0
 0359614,0.00548455,-0.00624711,-0.01702114,-0.00794869,0.00074289,-0.0
 0016025,0.00591376,-0.00302814,0.00112816,-0.00487635,-0.00339834,-0.0
 0248952,0.00466460,0.00090506,0.00277271,0.00747682,0.02857115,-0.0015
 5122,-0.00056898,-0.00294987,0.00136304,0.01079118,-0.01880985,-0.0043
 2766,-0.00055227,-0.00340877,0.00779079,-0.01637402,-0.02459789,0.0062
 9958,0.00032553,-0.00219827,-0.00507101,0.00060781,-0.00391360,-0.0032
 4514,0.00135669,-0.00546374,-0.00274586,-0.00419314,-0.00435087,0.0014
 8747,0.00860720,0.06569286\\-0.00005160,-0.00005622,-0.00000246,-0.000
 05867,-0.00006348,-0.00000155,-0.00005551,0.00000500,-0.00005844,0.000
 08214,-0.00000851,0.00003807,0.00004507,-0.00001385,0.00002826,0.00001
 081,0.00004039,-0.00001018,0.00003933,0.00002968,0.00000693,-0.0000259
 0,0.00001917,0.00002738,0.00001434,0.00004782,-0.00002800\\\@


 GETTING A SIMPLE ANSWER FROM A PROFESSOR IS LIKE
 GETTING A THIMBLE OF WATER FROM A FIRE HYDRANT.
     -- PROF. LEN SHAPIRO, NDSU
 Job cpu time:       0 days  4 hours 29 minutes 33.4 seconds.
 File lengths (MBytes):  RWF=    299 Int=      0 D2E=      0 Chk=     16 Scr=      1
 Normal termination of Gaussian 09 at Thu Mar  8 09:11:32 2018.
