 Entering Gaussian System, Link 0=/share/apps/mg09/g09
 Initial command:
 /share/apps//mg09/l1.exe "/state/partition1/gauss_tmp/Gau-29716.inp" -scrdir="/state/partition1/gauss_tmp/"
 Entering Link 1 = /share/apps//mg09/l1.exe PID=     29718.
  
 Copyright (c) 1988,1990,1992,1993,1995,1998,2003,2009,2013,
            Gaussian, Inc.  All Rights Reserved.
  
 This is part of the Gaussian(R) 09 program.  It is based on
 the Gaussian(R) 03 system (copyright 2003, Gaussian, Inc.),
 the Gaussian(R) 98 system (copyright 1998, Gaussian, Inc.),
 the Gaussian(R) 94 system (copyright 1995, Gaussian, Inc.),
 the Gaussian 92(TM) system (copyright 1992, Gaussian, Inc.),
 the Gaussian 90(TM) system (copyright 1990, Gaussian, Inc.),
 the Gaussian 88(TM) system (copyright 1988, Gaussian, Inc.),
 the Gaussian 86(TM) system (copyright 1986, Carnegie Mellon
 University), and the Gaussian 82(TM) system (copyright 1983,
 Carnegie Mellon University). Gaussian is a federally registered
 trademark of Gaussian, Inc.
  
 This software contains proprietary and confidential information,
 including trade secrets, belonging to Gaussian, Inc.
  
 This software is provided under written license and may be
 used, copied, transmitted, or stored only in accord with that
 written license.
  
 The following legend is applicable only to US Government
 contracts under FAR:
  
                    RESTRICTED RIGHTS LEGEND
  
 Use, reproduction and disclosure by the US Government is
 subject to restrictions as set forth in subparagraphs (a)
 and (c) of the Commercial Computer Software - Restricted
 Rights clause in FAR 52.227-19.
  
 Gaussian, Inc.
 340 Quinnipiac St., Bldg. 40, Wallingford CT 06492
  
  
 ---------------------------------------------------------------
 Warning -- This program may not be used in any manner that
 competes with the business of Gaussian, Inc. or will provide
 assistance to any competitor of Gaussian, Inc.  The licensee
 of this program is prohibited from giving any competitor of
 Gaussian, Inc. access to this program.  By using this program,
 the user acknowledges that Gaussian, Inc. is engaged in the
 business of creating and licensing software in the field of
 computational chemistry and represents and warrants to the
 licensee that it is not a competitor of Gaussian, Inc. and that
 it will not use this program in any manner prohibited above.
 ---------------------------------------------------------------
  

 Cite this work as:
 Gaussian 09, Revision D.01,
 M. J. Frisch, G. W. Trucks, H. B. Schlegel, G. E. Scuseria, 
 M. A. Robb, J. R. Cheeseman, G. Scalmani, V. Barone, B. Mennucci, 
 G. A. Petersson, H. Nakatsuji, M. Caricato, X. Li, H. P. Hratchian, 
 A. F. Izmaylov, J. Bloino, G. Zheng, J. L. Sonnenberg, M. Hada, 
 M. Ehara, K. Toyota, R. Fukuda, J. Hasegawa, M. Ishida, T. Nakajima, 
 Y. Honda, O. Kitao, H. Nakai, T. Vreven, J. A. Montgomery, Jr., 
 J. E. Peralta, F. Ogliaro, M. Bearpark, J. J. Heyd, E. Brothers, 
 K. N. Kudin, V. N. Staroverov, T. Keith, R. Kobayashi, J. Normand, 
 K. Raghavachari, A. Rendell, J. C. Burant, S. S. Iyengar, J. Tomasi, 
 M. Cossi, N. Rega, J. M. Millam, M. Klene, J. E. Knox, J. B. Cross, 
 V. Bakken, C. Adamo, J. Jaramillo, R. Gomperts, R. E. Stratmann, 
 O. Yazyev, A. J. Austin, R. Cammi, C. Pomelli, J. W. Ochterski, 
 R. L. Martin, K. Morokuma, V. G. Zakrzewski, G. A. Voth, 
 P. Salvador, J. J. Dannenberg, S. Dapprich, A. D. Daniels, 
 O. Farkas, J. B. Foresman, J. V. Ortiz, J. Cioslowski, 
 and D. J. Fox, Gaussian, Inc., Wallingford CT, 2013.
 
 ******************************************
 Gaussian 09:  ES64L-G09RevD.01 24-Apr-2013
                 6-Mar-2018 
 ******************************************
 %NProcShared=4
 Will use up to    4 processors via shared memory.
 %LindaWorkers=compute-0-6
 %chk=Isomer_53.chk
 %NProc=4
 Will use up to    4 processors via shared memory.
 %mem=4GB
 SetLPE:  input flags=" -vv -opt "Tsnet.Node.lindarsharg: ssh" "
 SetLPE:    new flags=" -vv -opt "Tsnet.Node.lindarsharg: ssh"  -nodelist 'compute-0-6.local'"
 Will use up to    1 processors via Linda.
 ----------------------------------------------------------------------
 #p PBE1PBE/Def2TZVP scf=(maxcycle=768) opt=(cartesian,maxcycle=512) fr
 eq
 ----------------------------------------------------------------------
 1/6=512,10=7,14=-1,18=10,26=3,38=1/1,3;
 2/12=2,17=6,18=5,29=2,40=1/2;
 3/5=44,7=101,11=2,16=1,25=1,30=1,71=1,74=-13/1,2,3;
 4//1;
 5/5=2,7=768,38=5/2;
 6/7=2,8=2,9=2,10=2,28=1/1;
 7/7=1,29=1/1,2,3,16;
 1/6=512,10=7,14=-1,18=10,26=3/3(2);
 2/29=1/2;
 99/12=1/99;
 2/29=1/2;
 3/5=44,7=101,11=2,16=1,25=1,30=1,71=1,74=-13/1,2,3;
 4/5=5,16=3,69=1/1;
 5/5=2,7=768,38=5/2;
 7/7=1/1,2,3,16;
 1/6=512,14=-1,18=10,26=3/3(-5);
 2/29=1/2;
 6/7=2,8=2,9=2,10=2,19=2,28=1/1;
 99/9=1,12=1/99;
 Leave Link    1 at Tue Mar  6 16:04:43 2018, MaxMem=   536870912 cpu:         0.2
 (Enter /share/apps//mg09/l101.exe)
 ---------------------
 01Final_coords.xyz_53
 ---------------------
 Symbolic Z-matrix:
 Charge =  0 Multiplicity = 1
 50                   -1.46059   2.24281   0.88538 
 32                   -0.19842   0.39387  -2.3089 
 32                   -1.41743  -0.53079   2.03394 
 83                    2.15319  -0.657    -0.84816 
 32                    0.78316   1.24695   2.25955 
 83                   -0.45499  -2.24096  -0.41274 
 50                    1.33812  -1.5822    1.98085 
 83                    1.23852   2.18873  -0.5437 
 83                   -2.54191  -0.11669  -0.68717 
 
 NAtoms=      9 NQM=        9 NQMF=       0 NMMI=      0 NMMIF=      0
                NMic=       0 NMicF=      0.
                    Isotopes and Nuclear Properties:
 (Nuclear quadrupole moments (NQMom) in fm**2, nuclear magnetic moments (NMagM)
  in nuclear magnetons)

  Atom         1           2           3           4           5           6           7           8           9
 IAtWgt=         118          74          74         209          74         209         118         209         209
 AtmWgt= 117.9018000  73.9211788  73.9211788 208.9804000  73.9211788 208.9804000 117.9018000 208.9804000 208.9804000
 NucSpn=           0           0           0           9           0           9           0           9           9
 AtZEff=   0.0000000   0.0000000   0.0000000   0.0000000   0.0000000   0.0000000   0.0000000   0.0000000   0.0000000
 NQMom=    0.0000000   0.0000000   0.0000000 -51.6000000   0.0000000 -51.6000000   0.0000000 -51.6000000 -51.6000000
 NMagM=    0.0000000   0.0000000   0.0000000   4.1106000   0.0000000   4.1106000   0.0000000   4.1106000   4.1106000
 AtZNuc=  50.0000000  32.0000000  32.0000000  83.0000000  32.0000000  83.0000000  50.0000000  83.0000000  83.0000000
 Leave Link  101 at Tue Mar  6 16:04:43 2018, MaxMem=   536870912 cpu:         0.3
 (Enter /share/apps//mg09/l103.exe)

 GradGradGradGradGradGradGradGradGradGradGradGradGradGradGradGradGradGrad
 Berny optimization.
 Initialization pass.
 No Z-matrix variables, so optimization will use Cartesian coordinates.
 Trust Radius=3.00D-01 FncErr=1.00D-07 GrdErr=1.00D-06
 Number of steps in this run=    100 maximum allowed number of steps=    100.
 GradGradGradGradGradGradGradGradGradGradGradGradGradGradGradGradGradGrad

 Leave Link  103 at Tue Mar  6 16:04:43 2018, MaxMem=   536870912 cpu:         0.0
 (Enter /share/apps//mg09/l202.exe)
 ---------------------------------------------------------------------------------------------------
                            Z-MATRIX (ANGSTROMS AND DEGREES)
   CD    Cent   Atom    N1       Length/X        N2       Alpha/Y        N3        Beta/Z          J
 ---------------------------------------------------------------------------------------------------
      1      1  Sn       0  -1.460588          2.242814          0.885376
      2      2  Ge       0  -0.198415          0.393865         -2.308897
      3      3  Ge       0  -1.417429         -0.530787          2.033937
      4      4  Bi       0   2.153189         -0.656999         -0.848161
      5      5  Ge       0   0.783162          1.246946          2.259545
      6      6  Bi       0  -0.454988         -2.240958         -0.412743
      7      7  Sn       0   1.338122         -1.582202          1.980847
      8      8  Bi       0   1.238519          2.188727         -0.543704
      9      9  Bi       0  -2.541912         -0.116689         -0.687173
 ---------------------------------------------------------------------------------------------------
                         Z-Matrix orientation:                         
 ---------------------------------------------------------------------
 Center     Atomic      Atomic             Coordinates (Angstroms)
 Number     Number       Type             X           Y           Z
 ---------------------------------------------------------------------
      1         50           0       -1.460588    2.242814    0.885376
      2         32           0       -0.198415    0.393865   -2.308897
      3         32           0       -1.417429   -0.530787    2.033937
      4         83           0        2.153189   -0.656999   -0.848161
      5         32           0        0.783162    1.246946    2.259545
      6         83           0       -0.454988   -2.240958   -0.412743
      7         50           0        1.338122   -1.582202    1.980847
      8         83           0        1.238519    2.188727   -0.543704
      9         83           0       -2.541912   -0.116689   -0.687173
 ---------------------------------------------------------------------
                    Distance matrix (angstroms):
                    1          2          3          4          5
     1  Sn   0.000000
     2  Ge   3.900650   0.000000
     3  Ge   3.002319   4.604474   0.000000
     4  Bi   4.947065   2.961099   4.590396   0.000000
     5  Ge   2.813273   4.749937   2.837928   3.893561   0.000000
     6  Bi   4.774993   3.256305   3.136434   3.082386   4.565042
     7  Sn   4.864523   4.966658   2.949806   3.086036   2.896503
     8  Bi   3.054566   2.898657   4.592826   3.004575   2.992074
     9  Bi   3.034704   2.895278   2.973277   4.728829   4.647447
                    6          7          8          9
     6  Bi   0.000000
     7  Sn   3.062430   0.000000
     8  Bi   4.744178   4.539073   0.000000
     9  Bi   2.990499   4.931604   4.430258   0.000000
 Stoichiometry    Bi4Ge3Sn2
 Framework group  C1[X(Bi4Ge3Sn2)]
 Deg. of freedom    21
 Full point group                 C1      NOp   1
 Largest Abelian subgroup         C1      NOp   1
 Largest concise Abelian subgroup C1      NOp   1
                         Standard orientation:                         
 ---------------------------------------------------------------------
 Center     Atomic      Atomic             Coordinates (Angstroms)
 Number     Number       Type             X           Y           Z
 ---------------------------------------------------------------------
      1         50           0       -1.460590    2.242813    0.885376
      2         32           0       -0.198415    0.393865   -2.308897
      3         32           0       -1.417428   -0.530788    2.033937
      4         83           0        2.153190   -0.656998   -0.848161
      5         32           0        0.783161    1.246946    2.259545
      6         83           0       -0.454986   -2.240959   -0.412743
      7         50           0        1.338123   -1.582201    1.980847
      8         83           0        1.238517    2.188728   -0.543704
      9         83           0       -2.541912   -0.116691   -0.687173
 ---------------------------------------------------------------------
 Rotational constants (GHZ):      0.0981210      0.0948861      0.0774957
 Leave Link  202 at Tue Mar  6 16:04:43 2018, MaxMem=   536870912 cpu:         0.0
 (Enter /share/apps//mg09/l301.exe)
 Standard basis: def2TZVP (5D, 7F)
 Ernie: Thresh=  0.10000D-02 Tol=  0.10000D-05 Strict=F.
 There are   519 symmetry adapted cartesian basis functions of A   symmetry.
 There are   444 symmetry adapted basis functions of A   symmetry.
   444 basis functions,   963 primitive gaussians,   519 cartesian basis functions
   116 alpha electrons      116 beta electrons
       nuclear repulsion energy      3534.0163820428 Hartrees.
 IExCor= 1009 DFT=T Ex+Corr=PBE1PBE ExCW=0 ScaHFX=  0.250000
 ScaDFX=  0.750000  0.750000  1.000000  1.000000 ScalE2=  1.000000  1.000000
 IRadAn=      0 IRanWt=     -1 IRanGd=            0 ICorTp=0 IEmpDi=  4
 NAtoms=    9 NActive=    9 NUniq=    9 SFac= 1.00D+00 NAtFMM=   60 NAOKFM=F Big=F
 Integral buffers will be    131072 words long.
 Raffenetti 2 integral format.
 Two-electron integral symmetry is turned on.
 Leave Link  301 at Tue Mar  6 16:04:43 2018, MaxMem=   536870912 cpu:         0.1
 (Enter /share/apps//mg09/l302.exe)
 NPDir=0 NMtPBC=     1 NCelOv=     1 NCel=       1 NClECP=     1 NCelD=      1
         NCelK=      1 NCelE2=     1 NClLst=     1 CellRange=     0.0.
 One-electron integrals computed using PRISM.
   1 Symmetry operations used in ECPInt.
 ECPInt:  NShTT=   10440 NPrTT=   41973 LenC2=    9657 LenP2D=   27482.
 LDataN:  DoStor=T MaxTD1= 8 Len=  415
 NBasis=   444 RedAO= T EigKep=  1.21D-03  NBF=   444
 NBsUse=   444 1.00D-06 EigRej= -1.00D+00 NBFU=   444
 Precomputing XC quadrature grid using
 IXCGrd= 4 IRadAn=           0 IRanWt=          -1 IRanGd=           0 AccXCQ= 0.00D+00.
 Defaulting to unpruned grid for atomic number  50.
 Defaulting to unpruned grid for atomic number  83.
 Defaulting to unpruned grid for atomic number  50.
 Generated NRdTot=       0 NPtTot=           0 NUsed=           0 NTot=          32
 NSgBfM=   500   500   500   500   500 MxSgAt=     9 MxSgA2=     9.
 Leave Link  302 at Tue Mar  6 16:04:51 2018, MaxMem=   536870912 cpu:        29.3
 (Enter /share/apps//mg09/l303.exe)
 DipDrv:  MaxL=1.
 Leave Link  303 at Tue Mar  6 16:04:51 2018, MaxMem=   536870912 cpu:         0.6
 (Enter /share/apps//mg09/l401.exe)
 ExpMin= 4.62D-02 ExpMax= 4.66D+05 ExpMxC= 4.50D+03 IAcc=2 IRadAn=         4 AccDes= 0.00D+00
 Harris functional with IExCor= 1009 and IRadAn=       4 diagonalized for initial guess.
 HarFok:  IExCor= 1009 AccDes= 0.00D+00 IRadAn=         4 IDoV= 1 UseB2=F ITyADJ=14
 ICtDFT=  3500011 ScaDFX=  1.000000  1.000000  1.000000  1.000000
 Defaulting to unpruned grid for atomic number  50.
 Defaulting to unpruned grid for atomic number  50.
 Defaulting to unpruned grid for atomic number  50.
 Defaulting to unpruned grid for atomic number  50.
 FoFCou: FMM=F IPFlag=           0 FMFlag=      100000 FMFlg1=           0
         NFxFlg=           0 DoJE=T BraDBF=F KetDBF=T FulRan=T
         wScrn=  0.000000 ICntrl=     500 IOpCl=  0 I1Cent=   200000004 NGrid=           0
         NMat0=    1 NMatS0=      1 NMatT0=    0 NMatD0=    1 NMtDS0=    0 NMtDT0=    0
 Petite list used in FoFCou.
 Harris En= -7518.60316984915    
 JPrj=0 DoOrth=F DoCkMO=F.
 Leave Link  401 at Tue Mar  6 16:04:54 2018, MaxMem=   536870912 cpu:        11.3
 (Enter /share/apps//mg09/l502.exe)
 Closed shell SCF:
 Using DIIS extrapolation, IDIIS=  1040.
 Integral symmetry usage will be decided dynamically.
 IVT=     1410107 IEndB=     1410107 NGot=   536870912 MDV=   536322046
 LenX=   536322046 LenY=   536052166
 Requested convergence on RMS density matrix=1.00D-08 within 768 cycles.
 Requested convergence on MAX density matrix=1.00D-06.
 Requested convergence on             energy=1.00D-06.
 No special actions if energy rises.
 Fock matrices will be formed incrementally for  20 cycles.

 Cycle   1  Pass 1  IDiag  1:
 FoFJK:  IHMeth= 1 ICntrl=       0 DoSepK=F KAlg= 0 I1Cent=   0 FoldK=F
 IRaf= 880000000 NMat=   1 IRICut=       1 DoRegI=T DoRafI=F ISym2E= 0.
 FoFCou: FMM=F IPFlag=           0 FMFlag=      100000 FMFlg1=           0
         NFxFlg=           0 DoJE=F BraDBF=F KetDBF=F FulRan=T
         wScrn=  0.000000 ICntrl=       0 IOpCl=  0 I1Cent=           0 NGrid=           0
         NMat0=    1 NMatS0=      1 NMatT0=    0 NMatD0=    1 NMtDS0=    0 NMtDT0=    0
 Symmetry not used in FoFCou.
 Defaulting to unpruned grid for atomic number  50.
 Defaulting to unpruned grid for atomic number  50.
 Defaulting to unpruned grid for atomic number  50.
 Defaulting to unpruned grid for atomic number  50.
 E= -7517.21042123022    
 DIIS: error= 3.00D-02 at cycle   1 NSaved=   1.
 NSaved= 1 IEnMin= 1 EnMin= -7517.21042123022     IErMin= 1 ErrMin= 3.00D-02
 ErrMax= 3.00D-02  0.00D+00 EMaxC= 1.00D-01 BMatC= 1.48D+00 BMatP= 1.48D+00
 IDIUse=3 WtCom= 7.00D-01 WtEn= 3.00D-01
 Coeff-Com:  0.100D+01
 Coeff-En:   0.100D+01
 Coeff:      0.100D+01
 Gap=     0.104 Goal=   None    Shift=    0.000
 GapD=    0.104 DampG=1.000 DampE=0.500 DampFc=0.5000 IDamp=-1.
 Damping current iteration by 5.00D-01
 RMSDP=6.07D-03 MaxDP=2.86D-01              OVMax= 9.42D-01

 Cycle   2  Pass 1  IDiag  1:
 RMSU=  3.03D-03    CP:  1.01D+00
 E= -7516.83035682139     Delta-E=        0.380064408833 Rises=F Damp=T
 DIIS: error= 1.44D-02 at cycle   2 NSaved=   2.
 NSaved= 2 IEnMin= 1 EnMin= -7517.21042123022     IErMin= 2 ErrMin= 1.44D-02
 ErrMax= 1.44D-02  0.00D+00 EMaxC= 1.00D-01 BMatC= 3.56D-01 BMatP= 1.48D+00
 IDIUse=3 WtCom= 8.56D-01 WtEn= 1.44D-01
 Coeff-Com:  0.194D+00 0.806D+00
 Coeff-En:   0.663D+00 0.337D+00
 Coeff:      0.262D+00 0.738D+00
 Gap=    -0.202 Goal=   None    Shift=    0.000
 RMSDP=4.35D-03 MaxDP=1.69D-01 DE= 3.80D-01 OVMax= 8.16D-01

 Cycle   3  Pass 1  IDiag  1:
 RMSU=  3.39D-03    CP:  1.01D+00  1.02D-01
 E= -7515.17575115135     Delta-E=        1.654605670037 Rises=F Damp=F
 DIIS: error= 3.72D-02 at cycle   3 NSaved=   3.
 NSaved= 3 IEnMin= 1 EnMin= -7517.21042123022     IErMin= 2 ErrMin= 1.44D-02
 ErrMax= 3.72D-02  0.00D+00 EMaxC= 1.00D-01 BMatC= 2.00D+00 BMatP= 3.56D-01
 IDIUse=2 WtCom= 0.00D+00 WtEn= 1.00D+00
 EnCoef did     8 forward-backward iterations
 Coeff-En:   0.642D+00 0.345D+00 0.123D-01
 Coeff:      0.642D+00 0.345D+00 0.123D-01
 Gap=     0.197 Goal=   None    Shift=    0.000
 RMSDP=3.65D-03 MaxDP=1.37D-01 DE= 1.65D+00 OVMax= 3.97D-01

 Cycle   4  Pass 1  IDiag  1:
 RMSU=  1.97D-03    CP:  1.01D+00  7.33D-01  2.89D-01
 E= -7517.60295123703     Delta-E=       -2.427200085682 Rises=F Damp=F
 DIIS: error= 1.27D-02 at cycle   4 NSaved=   4.
 NSaved= 4 IEnMin= 4 EnMin= -7517.60295123703     IErMin= 4 ErrMin= 1.27D-02
 ErrMax= 1.27D-02  0.00D+00 EMaxC= 1.00D-01 BMatC= 4.39D-01 BMatP= 3.56D-01
 IDIUse=2 WtCom= 0.00D+00 WtEn= 1.00D+00
 Coeff-En:   0.233D+00 0.000D+00 0.000D+00 0.767D+00
 Coeff:      0.233D+00 0.000D+00 0.000D+00 0.767D+00
 Gap=     0.113 Goal=   None    Shift=    0.000
 RMSDP=2.20D-03 MaxDP=8.82D-02 DE=-2.43D+00 OVMax= 1.95D-01

 Cycle   5  Pass 1  IDiag  1:
 RMSU=  1.27D-03    CP:  1.00D+00  5.07D-01 -9.73D-02  4.83D-01
 E= -7517.50790579632     Delta-E=        0.095045440716 Rises=F Damp=F
 DIIS: error= 1.21D-02 at cycle   5 NSaved=   5.
 NSaved= 5 IEnMin= 4 EnMin= -7517.60295123703     IErMin= 5 ErrMin= 1.21D-02
 ErrMax= 1.21D-02  0.00D+00 EMaxC= 1.00D-01 BMatC= 3.22D-01 BMatP= 3.56D-01
 IDIUse=3 WtCom= 8.79D-01 WtEn= 1.21D-01
 EnCoef did     4 forward-backward iterations
 Coeff-Com:  0.208D+00-0.101D+00-0.799D-02 0.558D+00 0.343D+00
 Coeff-En:   0.381D-01 0.000D+00 0.000D+00 0.577D+00 0.385D+00
 Coeff:      0.188D+00-0.888D-01-0.702D-02 0.560D+00 0.348D+00
 Gap=     0.128 Goal=   None    Shift=    0.000
 RMSDP=1.44D-03 MaxDP=5.81D-02 DE= 9.50D-02 OVMax= 1.65D-01

 Cycle   6  Pass 1  IDiag  1:
 RMSU=  4.49D-04    CP:  1.00D+00  4.81D-01  1.28D-01  6.83D-01  1.66D-01
 E= -7517.79115687371     Delta-E=       -0.283251077393 Rises=F Damp=F
 DIIS: error= 2.76D-03 at cycle   6 NSaved=   6.
 NSaved= 6 IEnMin= 6 EnMin= -7517.79115687371     IErMin= 6 ErrMin= 2.76D-03
 ErrMax= 2.76D-03  0.00D+00 EMaxC= 1.00D-01 BMatC= 1.75D-02 BMatP= 3.22D-01
 IDIUse=3 WtCom= 9.72D-01 WtEn= 2.76D-02
 Coeff-Com:  0.637D-01-0.762D-01 0.379D-03 0.263D+00 0.234D+00 0.516D+00
 Coeff-En:   0.000D+00 0.000D+00 0.000D+00 0.000D+00 0.133D-01 0.987D+00
 Coeff:      0.619D-01-0.741D-01 0.369D-03 0.255D+00 0.228D+00 0.529D+00
 Gap=     0.116 Goal=   None    Shift=    0.000
 RMSDP=3.82D-04 MaxDP=2.36D-02 DE=-2.83D-01 OVMax= 4.63D-02

 Cycle   7  Pass 1  IDiag  1:
 RMSU=  2.25D-04    CP:  1.00D+00  4.91D-01  9.41D-02  6.64D-01  3.19D-01
                    CP:  5.42D-01
 E= -7517.79908721271     Delta-E=       -0.007930339001 Rises=F Damp=F
 DIIS: error= 2.20D-03 at cycle   7 NSaved=   7.
 NSaved= 7 IEnMin= 7 EnMin= -7517.79908721271     IErMin= 7 ErrMin= 2.20D-03
 ErrMax= 2.20D-03  0.00D+00 EMaxC= 1.00D-01 BMatC= 3.97D-03 BMatP= 1.75D-02
 IDIUse=3 WtCom= 9.78D-01 WtEn= 2.20D-02
 Coeff-Com:  0.283D-01-0.497D-01 0.281D-02 0.124D+00 0.110D+00 0.356D+00
 Coeff-Com:  0.429D+00
 Coeff-En:   0.000D+00 0.000D+00 0.000D+00 0.000D+00 0.000D+00 0.319D+00
 Coeff-En:   0.681D+00
 Coeff:      0.277D-01-0.486D-01 0.275D-02 0.121D+00 0.107D+00 0.355D+00
 Coeff:      0.435D+00
 Gap=     0.114 Goal=   None    Shift=    0.000
 RMSDP=2.30D-04 MaxDP=8.36D-03 DE=-7.93D-03 OVMax= 2.82D-02

 Cycle   8  Pass 1  IDiag  1:
 RMSU=  1.16D-04    CP:  1.00D+00  4.89D-01  1.07D-01  6.68D-01  2.86D-01
                    CP:  6.82D-01  2.09D-01
 E= -7517.80228361592     Delta-E=       -0.003196403208 Rises=F Damp=F
 DIIS: error= 1.09D-03 at cycle   8 NSaved=   8.
 NSaved= 8 IEnMin= 8 EnMin= -7517.80228361592     IErMin= 8 ErrMin= 1.09D-03
 ErrMax= 1.09D-03  0.00D+00 EMaxC= 1.00D-01 BMatC= 1.47D-03 BMatP= 3.97D-03
 IDIUse=3 WtCom= 9.89D-01 WtEn= 1.09D-02
 Coeff-Com:  0.122D-01-0.268D-01 0.299D-02 0.429D-01 0.299D-01 0.173D+00
 Coeff-Com:  0.378D+00 0.388D+00
 Coeff-En:   0.000D+00 0.000D+00 0.000D+00 0.000D+00 0.000D+00 0.000D+00
 Coeff-En:   0.294D+00 0.706D+00
 Coeff:      0.121D-01-0.265D-01 0.296D-02 0.425D-01 0.295D-01 0.171D+00
 Coeff:      0.377D+00 0.391D+00
 Gap=     0.114 Goal=   None    Shift=    0.000
 RMSDP=1.13D-04 MaxDP=4.74D-03 DE=-3.20D-03 OVMax= 1.23D-02

 Cycle   9  Pass 1  IDiag  1:
 RMSU=  4.50D-05    CP:  1.00D+00  4.87D-01  1.14D-01  6.70D-01  2.82D-01
                    CP:  6.45D-01  5.21D-01  3.87D-01
 E= -7517.80412557462     Delta-E=       -0.001841958698 Rises=F Damp=F
 DIIS: error= 2.32D-04 at cycle   9 NSaved=   9.
 NSaved= 9 IEnMin= 9 EnMin= -7517.80412557462     IErMin= 9 ErrMin= 2.32D-04
 ErrMax= 2.32D-04  0.00D+00 EMaxC= 1.00D-01 BMatC= 9.45D-05 BMatP= 1.47D-03
 IDIUse=3 WtCom= 9.98D-01 WtEn= 2.32D-03
 Coeff-Com:  0.418D-02-0.870D-02 0.155D-02 0.526D-02-0.506D-02 0.362D-01
 Coeff-Com:  0.141D+00 0.237D+00 0.588D+00
 Coeff-En:   0.000D+00 0.000D+00 0.000D+00 0.000D+00 0.000D+00 0.000D+00
 Coeff-En:   0.000D+00 0.530D-02 0.995D+00
 Coeff:      0.417D-02-0.868D-02 0.155D-02 0.525D-02-0.504D-02 0.361D-01
 Coeff:      0.140D+00 0.237D+00 0.589D+00
 Gap=     0.114 Goal=   None    Shift=    0.000
 RMSDP=3.80D-05 MaxDP=2.43D-03 DE=-1.84D-03 OVMax= 4.17D-03

 Cycle  10  Pass 1  IDiag  1:
 RMSU=  2.37D-05    CP:  1.00D+00  4.84D-01  1.15D-01  6.68D-01  2.78D-01
                    CP:  6.45D-01  5.24D-01  5.55D-01  5.88D-01
 E= -7517.80420746852     Delta-E=       -0.000081893908 Rises=F Damp=F
 DIIS: error= 1.54D-04 at cycle  10 NSaved=  10.
 NSaved=10 IEnMin=10 EnMin= -7517.80420746852     IErMin=10 ErrMin= 1.54D-04
 ErrMax= 1.54D-04  0.00D+00 EMaxC= 1.00D-01 BMatC= 3.37D-05 BMatP= 9.45D-05
 IDIUse=3 WtCom= 9.98D-01 WtEn= 1.54D-03
 Coeff-Com:  0.165D-02-0.315D-02 0.505D-03-0.193D-02-0.836D-02-0.874D-04
 Coeff-Com:  0.375D-01 0.109D+00 0.454D+00 0.411D+00
 Coeff-En:   0.000D+00 0.000D+00 0.000D+00 0.000D+00 0.000D+00 0.000D+00
 Coeff-En:   0.000D+00 0.000D+00 0.266D+00 0.734D+00
 Coeff:      0.164D-02-0.315D-02 0.505D-03-0.193D-02-0.835D-02-0.873D-04
 Coeff:      0.375D-01 0.108D+00 0.454D+00 0.412D+00
 Gap=     0.114 Goal=   None    Shift=    0.000
 RMSDP=2.15D-05 MaxDP=9.97D-04 DE=-8.19D-05 OVMax= 2.41D-03

 Cycle  11  Pass 1  IDiag  1:
 RMSU=  1.21D-05    CP:  1.00D+00  4.84D-01  1.16D-01  6.68D-01  2.75D-01
                    CP:  6.51D-01  5.19D-01  5.30D-01  7.48D-01  3.73D-01
 E= -7517.80424180933     Delta-E=       -0.000034340810 Rises=F Damp=F
 DIIS: error= 9.24D-05 at cycle  11 NSaved=  11.
 NSaved=11 IEnMin=11 EnMin= -7517.80424180933     IErMin=11 ErrMin= 9.24D-05
 ErrMax= 9.24D-05  0.00D+00 EMaxC= 1.00D-01 BMatC= 1.02D-05 BMatP= 3.37D-05
 IDIUse=1 WtCom= 1.00D+00 WtEn= 0.00D+00
 Coeff-Com:  0.607D-03-0.114D-02 0.380D-03-0.222D-02-0.529D-02-0.547D-02
 Coeff-Com:  0.408D-02 0.438D-01 0.262D+00 0.344D+00 0.360D+00
 Coeff:      0.607D-03-0.114D-02 0.380D-03-0.222D-02-0.529D-02-0.547D-02
 Coeff:      0.408D-02 0.438D-01 0.262D+00 0.344D+00 0.360D+00
 Gap=     0.114 Goal=   None    Shift=    0.000
 RMSDP=8.67D-06 MaxDP=4.16D-04 DE=-3.43D-05 OVMax= 1.15D-03

 Cycle  12  Pass 1  IDiag  1:
 RMSU=  3.05D-06    CP:  1.00D+00  4.84D-01  1.16D-01  6.68D-01  2.75D-01
                    CP:  6.52D-01  5.16D-01  5.23D-01  7.54D-01  5.30D-01
                    CP:  4.20D-01
 E= -7517.80425447162     Delta-E=       -0.000012662284 Rises=F Damp=F
 DIIS: error= 1.71D-05 at cycle  12 NSaved=  12.
 NSaved=12 IEnMin=12 EnMin= -7517.80425447162     IErMin=12 ErrMin= 1.71D-05
 ErrMax= 1.71D-05  0.00D+00 EMaxC= 1.00D-01 BMatC= 3.84D-07 BMatP= 1.02D-05
 IDIUse=1 WtCom= 1.00D+00 WtEn= 0.00D+00
 Coeff-Com:  0.161D-03-0.283D-03 0.102D-03-0.493D-03-0.110D-02-0.325D-02
 Coeff-Com: -0.570D-02 0.116D-02 0.406D-01 0.952D-01 0.173D+00 0.701D+00
 Coeff:      0.161D-03-0.283D-03 0.102D-03-0.493D-03-0.110D-02-0.325D-02
 Coeff:     -0.570D-02 0.116D-02 0.406D-01 0.952D-01 0.173D+00 0.701D+00
 Gap=     0.114 Goal=   None    Shift=    0.000
 RMSDP=1.60D-06 MaxDP=8.41D-05 DE=-1.27D-05 OVMax= 1.46D-04

 Cycle  13  Pass 1  IDiag  1:
 RMSU=  1.13D-06    CP:  1.00D+00  4.84D-01  1.16D-01  6.68D-01  2.75D-01
                    CP:  6.52D-01  5.16D-01  5.25D-01  7.62D-01  5.46D-01
                    CP:  4.59D-01  8.77D-01
 E= -7517.80425489407     Delta-E=       -0.000000422449 Rises=F Damp=F
 DIIS: error= 4.92D-06 at cycle  13 NSaved=  13.
 NSaved=13 IEnMin=13 EnMin= -7517.80425489407     IErMin=13 ErrMin= 4.92D-06
 ErrMax= 4.92D-06  0.00D+00 EMaxC= 1.00D-01 BMatC= 4.32D-08 BMatP= 3.84D-07
 IDIUse=1 WtCom= 1.00D+00 WtEn= 0.00D+00
 Coeff-Com:  0.388D-04-0.522D-04 0.153D-04 0.166D-04 0.643D-05-0.123D-02
 Coeff-Com: -0.350D-02-0.488D-02-0.118D-01 0.574D-02 0.531D-01 0.315D+00
 Coeff-Com:  0.647D+00
 Coeff:      0.388D-04-0.522D-04 0.153D-04 0.166D-04 0.643D-05-0.123D-02
 Coeff:     -0.350D-02-0.488D-02-0.118D-01 0.574D-02 0.531D-01 0.315D+00
 Coeff:      0.647D+00
 Gap=     0.114 Goal=   None    Shift=    0.000
 RMSDP=7.14D-07 MaxDP=3.65D-05 DE=-4.22D-07 OVMax= 6.67D-05

 Cycle  14  Pass 1  IDiag  1:
 RMSU=  4.34D-07    CP:  1.00D+00  4.84D-01  1.16D-01  6.68D-01  2.75D-01
                    CP:  6.51D-01  5.16D-01  5.27D-01  7.61D-01  5.45D-01
                    CP:  4.84D-01  9.17D-01  7.67D-01
 E= -7517.80425494706     Delta-E=       -0.000000052991 Rises=F Damp=F
 DIIS: error= 1.97D-06 at cycle  14 NSaved=  14.
 NSaved=14 IEnMin=14 EnMin= -7517.80425494706     IErMin=14 ErrMin= 1.97D-06
 ErrMax= 1.97D-06  0.00D+00 EMaxC= 1.00D-01 BMatC= 5.34D-09 BMatP= 4.32D-08
 IDIUse=1 WtCom= 1.00D+00 WtEn= 0.00D+00
 Coeff-Com:  0.116D-04-0.547D-05 0.272D-05 0.223D-04 0.448D-04-0.516D-03
 Coeff-Com: -0.171D-02-0.297D-02-0.957D-02-0.378D-02 0.171D-01 0.130D+00
 Coeff-Com:  0.375D+00 0.496D+00
 Coeff:      0.116D-04-0.547D-05 0.272D-05 0.223D-04 0.448D-04-0.516D-03
 Coeff:     -0.171D-02-0.297D-02-0.957D-02-0.378D-02 0.171D-01 0.130D+00
 Coeff:      0.375D+00 0.496D+00
 Gap=     0.114 Goal=   None    Shift=    0.000
 RMSDP=2.61D-07 MaxDP=1.67D-05 DE=-5.30D-08 OVMax= 2.62D-05

 Cycle  15  Pass 1  IDiag  1:
 RMSU=  1.47D-07    CP:  1.00D+00  4.84D-01  1.16D-01  6.68D-01  2.75D-01
                    CP:  6.51D-01  5.16D-01  5.27D-01  7.62D-01  5.47D-01
                    CP:  4.88D-01  9.25D-01  8.50D-01  6.63D-01
 E= -7517.80425495365     Delta-E=       -0.000000006594 Rises=F Damp=F
 DIIS: error= 4.68D-07 at cycle  15 NSaved=  15.
 NSaved=15 IEnMin=15 EnMin= -7517.80425495365     IErMin=15 ErrMin= 4.68D-07
 ErrMax= 4.68D-07  0.00D+00 EMaxC= 1.00D-01 BMatC= 4.56D-10 BMatP= 5.34D-09
 IDIUse=1 WtCom= 1.00D+00 WtEn= 0.00D+00
 Coeff-Com:  0.558D-06 0.387D-05-0.207D-05 0.178D-04 0.315D-04-0.126D-04
 Coeff-Com: -0.329D-03-0.788D-03-0.316D-02-0.297D-02-0.712D-03 0.186D-01
 Coeff-Com:  0.883D-01 0.254D+00 0.647D+00
 Coeff:      0.558D-06 0.387D-05-0.207D-05 0.178D-04 0.315D-04-0.126D-04
 Coeff:     -0.329D-03-0.788D-03-0.316D-02-0.297D-02-0.712D-03 0.186D-01
 Coeff:      0.883D-01 0.254D+00 0.647D+00
 Gap=     0.114 Goal=   None    Shift=    0.000
 RMSDP=8.66D-08 MaxDP=4.78D-06 DE=-6.59D-09 OVMax= 1.17D-05

 Cycle  16  Pass 1  IDiag  1:
 RMSU=  4.57D-08    CP:  1.00D+00  4.84D-01  1.16D-01  6.68D-01  2.75D-01
                    CP:  6.51D-01  5.16D-01  5.26D-01  7.63D-01  5.48D-01
                    CP:  4.87D-01  9.36D-01  8.56D-01  7.50D-01  8.48D-01
 E= -7517.80425495388     Delta-E=       -0.000000000231 Rises=F Damp=F
 DIIS: error= 2.34D-07 at cycle  16 NSaved=  16.
 NSaved=16 IEnMin=16 EnMin= -7517.80425495388     IErMin=16 ErrMin= 2.34D-07
 ErrMax= 2.34D-07  0.00D+00 EMaxC= 1.00D-01 BMatC= 7.58D-11 BMatP= 4.56D-10
 IDIUse=1 WtCom= 1.00D+00 WtEn= 0.00D+00
 Coeff-Com: -0.141D-05 0.304D-05-0.934D-06 0.800D-05 0.136D-04 0.519D-04
 Coeff-Com:  0.354D-04-0.256D-04-0.411D-03-0.682D-03-0.872D-03-0.199D-02
 Coeff-Com:  0.459D-02 0.585D-01 0.258D+00 0.683D+00
 Coeff:     -0.141D-05 0.304D-05-0.934D-06 0.800D-05 0.136D-04 0.519D-04
 Coeff:      0.354D-04-0.256D-04-0.411D-03-0.682D-03-0.872D-03-0.199D-02
 Coeff:      0.459D-02 0.585D-01 0.258D+00 0.683D+00
 Gap=     0.114 Goal=   None    Shift=    0.000
 RMSDP=3.25D-08 MaxDP=1.88D-06 DE=-2.31D-10 OVMax= 3.66D-06

 Cycle  17  Pass 1  IDiag  1:
 RMSU=  1.62D-08    CP:  1.00D+00  4.84D-01  1.16D-01  6.68D-01  2.75D-01
                    CP:  6.51D-01  5.16D-01  5.26D-01  7.62D-01  5.47D-01
                    CP:  4.87D-01  9.36D-01  8.60D-01  7.61D-01  9.12D-01
                    CP:  8.57D-01
 E= -7517.80425495393     Delta-E=       -0.000000000047 Rises=F Damp=F
 DIIS: error= 5.80D-08 at cycle  17 NSaved=  17.
 NSaved=17 IEnMin=17 EnMin= -7517.80425495393     IErMin=17 ErrMin= 5.80D-08
 ErrMax= 5.80D-08  0.00D+00 EMaxC= 1.00D-01 BMatC= 5.18D-12 BMatP= 7.58D-11
 IDIUse=1 WtCom= 1.00D+00 WtEn= 0.00D+00
 Coeff-Com: -0.798D-06 0.145D-05-0.250D-06 0.205D-05 0.299D-05 0.267D-04
 Coeff-Com:  0.543D-04 0.691D-04 0.117D-03-0.661D-04-0.368D-03-0.264D-02
 Coeff-Com: -0.447D-02 0.577D-02 0.562D-01 0.278D+00 0.668D+00
 Coeff:     -0.798D-06 0.145D-05-0.250D-06 0.205D-05 0.299D-05 0.267D-04
 Coeff:      0.543D-04 0.691D-04 0.117D-03-0.661D-04-0.368D-03-0.264D-02
 Coeff:     -0.447D-02 0.577D-02 0.562D-01 0.278D+00 0.668D+00
 Gap=     0.114 Goal=   None    Shift=    0.000
 RMSDP=1.03D-08 MaxDP=6.31D-07 DE=-4.73D-11 OVMax= 1.48D-06

 Cycle  18  Pass 1  IDiag  1:
 RMSU=  7.05D-09    CP:  1.00D+00  4.84D-01  1.16D-01  6.68D-01  2.75D-01
                    CP:  6.51D-01  5.16D-01  5.26D-01  7.62D-01  5.47D-01
                    CP:  4.87D-01  9.36D-01  8.62D-01  7.67D-01  9.18D-01
                    CP:  9.46D-01  8.10D-01
 E= -7517.80425495392     Delta-E=        0.000000000015 Rises=F Damp=F
 DIIS: error= 3.00D-08 at cycle  18 NSaved=  18.
 NSaved=18 IEnMin=17 EnMin= -7517.80425495393     IErMin=18 ErrMin= 3.00D-08
 ErrMax= 3.00D-08  0.00D+00 EMaxC= 1.00D-01 BMatC= 1.51D-12 BMatP= 5.18D-12
 IDIUse=1 WtCom= 1.00D+00 WtEn= 0.00D+00
 Coeff-Com: -0.241D-06 0.298D-06-0.269D-08-0.921D-07-0.631D-06 0.654D-05
 Coeff-Com:  0.237D-04 0.437D-04 0.159D-03 0.103D-03-0.636D-04-0.984D-03
 Coeff-Com: -0.337D-02-0.856D-02-0.187D-01 0.322D-01 0.420D+00 0.579D+00
 Coeff:     -0.241D-06 0.298D-06-0.269D-08-0.921D-07-0.631D-06 0.654D-05
 Coeff:      0.237D-04 0.437D-04 0.159D-03 0.103D-03-0.636D-04-0.984D-03
 Coeff:     -0.337D-02-0.856D-02-0.187D-01 0.322D-01 0.420D+00 0.579D+00
 Gap=     0.114 Goal=   None    Shift=    0.000
 RMSDP=4.90D-09 MaxDP=4.04D-07 DE= 1.46D-11 OVMax= 6.00D-07

 SCF Done:  E(RPBE1PBE) =  -7517.80425495     A.U. after   18 cycles
            NFock= 18  Conv=0.49D-08     -V/T= 2.1285
 KE= 6.661928824667D+03 PE=-2.465927848802D+04 EE= 6.945529026352D+03
 Leave Link  502 at Tue Mar  6 16:21:32 2018, MaxMem=   536870912 cpu:      3797.4
 (Enter /share/apps//mg09/l601.exe)
 Copying SCF densities to generalized density rwf, IOpCl= 0 IROHF=0.

 **********************************************************************

            Population analysis using the SCF density.

 **********************************************************************

 Orbital symmetries:
       Occupied  (A) (A) (A) (A) (A) (A) (A) (A) (A) (A) (A) (A)
                 (A) (A) (A) (A) (A) (A) (A) (A) (A) (A) (A) (A)
                 (A) (A) (A) (A) (A) (A) (A) (A) (A) (A) (A) (A)
                 (A) (A) (A) (A) (A) (A) (A) (A) (A) (A) (A) (A)
                 (A) (A) (A) (A) (A) (A) (A) (A) (A) (A) (A) (A)
                 (A) (A) (A) (A) (A) (A) (A) (A) (A) (A) (A) (A)
                 (A) (A) (A) (A) (A) (A) (A) (A) (A) (A) (A) (A)
                 (A) (A) (A) (A) (A) (A) (A) (A) (A) (A) (A) (A)
                 (A) (A) (A) (A) (A) (A) (A) (A) (A) (A) (A) (A)
                 (A) (A) (A) (A) (A) (A) (A) (A)
       Virtual   (A) (A) (A) (A) (A) (A) (A) (A) (A) (A) (A) (A)
                 (A) (A) (A) (A) (A) (A) (A) (A) (A) (A) (A) (A)
                 (A) (A) (A) (A) (A) (A) (A) (A) (A) (A) (A) (A)
                 (A) (A) (A) (A) (A) (A) (A) (A) (A) (A) (A) (A)
                 (A) (A) (A) (A) (A) (A) (A) (A) (A) (A) (A) (A)
                 (A) (A) (A) (A) (A) (A) (A) (A) (A) (A) (A) (A)
                 (A) (A) (A) (A) (A) (A) (A) (A) (A) (A) (A) (A)
                 (A) (A) (A) (A) (A) (A) (A) (A) (A) (A) (A) (A)
                 (A) (A) (A) (A) (A) (A) (A) (A) (A) (A) (A) (A)
                 (A) (A) (A) (A) (A) (A) (A) (A) (A) (A) (A) (A)
                 (A) (A) (A) (A) (A) (A) (A) (A) (A) (A) (A) (A)
                 (A) (A) (A) (A) (A) (A) (A) (A) (A) (A) (A) (A)
                 (A) (A) (A) (A) (A) (A) (A) (A) (A) (A) (A) (A)
                 (A) (A) (A) (A) (A) (A) (A) (A) (A) (A) (A) (A)
                 (A) (A) (A) (A) (A) (A) (A) (A) (A) (A) (A) (A)
                 (A) (A) (A) (A) (A) (A) (A) (A) (A) (A) (A) (A)
                 (A) (A) (A) (A) (A) (A) (A) (A) (A) (A) (A) (A)
                 (A) (A) (A) (A) (A) (A) (A) (A) (A) (A) (A) (A)
                 (A) (A) (A) (A) (A) (A) (A) (A) (A) (A) (A) (A)
                 (A) (A) (A) (A) (A) (A) (A) (A) (A) (A) (A) (A)
                 (A) (A) (A) (A) (A) (A) (A) (A) (A) (A) (A) (A)
                 (A) (A) (A) (A) (A) (A) (A) (A) (A) (A) (A) (A)
                 (A) (A) (A) (A) (A) (A) (A) (A) (A) (A) (A) (A)
                 (A) (A) (A) (A) (A) (A) (A) (A) (A) (A) (A) (A)
                 (A) (A) (A) (A) (A) (A) (A) (A) (A) (A) (A) (A)
                 (A) (A) (A) (A) (A) (A) (A) (A) (A) (A) (A) (A)
                 (A) (A) (A) (A) (A) (A) (A) (A) (A) (A) (A) (A)
                 (A) (A) (A) (A)
 The electronic state is 1-A.
 Alpha  occ. eigenvalues -- -399.10535-399.09701-399.08813 -49.92080 -49.91256
 Alpha  occ. eigenvalues --  -49.90395 -44.40181 -44.40126 -44.40104 -44.39354
 Alpha  occ. eigenvalues --  -44.39315 -44.39269 -44.38496 -44.38432 -44.38423
 Alpha  occ. eigenvalues --   -6.28573  -6.27751  -6.26897  -6.02908  -6.02175
 Alpha  occ. eigenvalues --   -6.01616  -6.00808  -5.13359  -5.13129  -4.44062
 Alpha  occ. eigenvalues --   -4.43899  -4.43805  -4.43241  -4.43121  -4.42949
 Alpha  occ. eigenvalues --   -4.42403  -4.42208  -4.42154  -3.75179  -3.75094
 Alpha  occ. eigenvalues --   -3.74871  -3.74446  -3.74353  -3.74137  -3.73926
 Alpha  occ. eigenvalues --   -3.73806  -3.73525  -3.73144  -3.72891  -3.72789
 Alpha  occ. eigenvalues --   -3.46605  -3.46526  -3.46361  -3.46328  -3.46303
 Alpha  occ. eigenvalues --   -3.46045  -1.23495  -1.23466  -1.23361  -1.23268
 Alpha  occ. eigenvalues --   -1.23223  -1.22690  -1.22678  -1.22528  -1.22437
 Alpha  occ. eigenvalues --   -1.22406  -1.21832  -1.21771  -1.21719  -1.21586
 Alpha  occ. eigenvalues --   -1.21556  -1.09201  -1.08919  -1.08711  -1.08681
 Alpha  occ. eigenvalues --   -1.08544  -1.08261  -1.08055  -1.07887  -1.07785
 Alpha  occ. eigenvalues --   -1.07723  -1.07551  -1.07438  -1.07343  -1.07208
 Alpha  occ. eigenvalues --   -1.07124  -1.06675  -1.06659  -1.06582  -1.06364
 Alpha  occ. eigenvalues --   -1.06333  -1.02819  -1.02793  -1.02648  -1.02618
 Alpha  occ. eigenvalues --   -1.02603  -1.02560  -1.02513  -1.02376  -1.02332
 Alpha  occ. eigenvalues --   -1.02255  -0.66958  -0.62168  -0.59546  -0.55114
 Alpha  occ. eigenvalues --   -0.53233  -0.45618  -0.44146  -0.43197  -0.39657
 Alpha  occ. eigenvalues --   -0.28961  -0.27704  -0.27167  -0.25465  -0.24846
 Alpha  occ. eigenvalues --   -0.24542  -0.23256  -0.22261  -0.21773  -0.21075
 Alpha  occ. eigenvalues --   -0.19762
 Alpha virt. eigenvalues --   -0.08399  -0.07738  -0.07036  -0.06743  -0.06253
 Alpha virt. eigenvalues --   -0.05966  -0.05576  -0.04622  -0.03992  -0.03578
 Alpha virt. eigenvalues --   -0.02663  -0.02055  -0.00697   0.03695   0.04511
 Alpha virt. eigenvalues --    0.04888   0.06509   0.08014   0.08327   0.08941
 Alpha virt. eigenvalues --    0.09302   0.09787   0.10264   0.10494   0.10715
 Alpha virt. eigenvalues --    0.11013   0.11636   0.11941   0.12571   0.13116
 Alpha virt. eigenvalues --    0.14057   0.14505   0.15636   0.16254   0.16928
 Alpha virt. eigenvalues --    0.17426   0.19335   0.19518   0.20321   0.20610
 Alpha virt. eigenvalues --    0.21322   0.22113   0.22703   0.23596   0.24070
 Alpha virt. eigenvalues --    0.24344   0.25675   0.26212   0.27256   0.28377
 Alpha virt. eigenvalues --    0.29105   0.29763   0.29877   0.30807   0.30907
 Alpha virt. eigenvalues --    0.31903   0.32275   0.32556   0.33514   0.34018
 Alpha virt. eigenvalues --    0.34716   0.35445   0.35849   0.37105   0.38247
 Alpha virt. eigenvalues --    0.39435   0.39581   0.40020   0.40461   0.41203
 Alpha virt. eigenvalues --    0.41998   0.42544   0.43610   0.44464   0.44800
 Alpha virt. eigenvalues --    0.46151   0.46735   0.47071   0.47491   0.47924
 Alpha virt. eigenvalues --    0.48478   0.49393   0.49972   0.50228   0.51519
 Alpha virt. eigenvalues --    0.52015   0.53257   0.53528   0.55452   0.56616
 Alpha virt. eigenvalues --    0.57029   0.57693   0.58222   0.58620   0.59007
 Alpha virt. eigenvalues --    0.59538   0.60077   0.60930   0.61586   0.62243
 Alpha virt. eigenvalues --    0.62584   0.64100   0.64807   0.64938   0.65696
 Alpha virt. eigenvalues --    0.66720   0.67428   0.68042   0.68557   0.70292
 Alpha virt. eigenvalues --    0.71025   0.72192   0.72608   0.74066   0.75207
 Alpha virt. eigenvalues --    0.75815   0.76152   0.76692   0.77417   0.78177
 Alpha virt. eigenvalues --    0.78628   0.79441   0.80052   0.81983   0.83000
 Alpha virt. eigenvalues --    0.83330   0.83846   0.84050   0.84869   0.86390
 Alpha virt. eigenvalues --    0.87109   0.88370   0.88469   0.89778   0.90094
 Alpha virt. eigenvalues --    0.91107   0.91426   0.93019   0.93145   0.93685
 Alpha virt. eigenvalues --    0.93779   0.94377   0.95113   0.95795   0.96440
 Alpha virt. eigenvalues --    0.97916   0.99548   1.00309   1.01345   1.02139
 Alpha virt. eigenvalues --    1.02527   1.04883   1.05981   1.06925   1.07746
 Alpha virt. eigenvalues --    1.09522   1.10490   1.10762   1.11821   1.12965
 Alpha virt. eigenvalues --    1.13685   1.14774   1.15142   1.15755   1.16527
 Alpha virt. eigenvalues --    1.16985   1.18005   1.18329   1.19191   1.19628
 Alpha virt. eigenvalues --    1.20288   1.20547   1.21279   1.21341   1.21607
 Alpha virt. eigenvalues --    1.21991   1.22216   1.22841   1.23210   1.23648
 Alpha virt. eigenvalues --    1.24284   1.24412   1.25950   1.26147   1.26573
 Alpha virt. eigenvalues --    1.27195   1.27786   1.28533   1.28834   1.30644
 Alpha virt. eigenvalues --    1.30961   1.30985   1.32255   1.32839   1.33482
 Alpha virt. eigenvalues --    1.33707   1.35215   1.36458   1.36550   1.38893
 Alpha virt. eigenvalues --    1.39516   1.39806   1.41273   1.42019   1.42521
 Alpha virt. eigenvalues --    1.44001   1.45137   1.46926   1.47129   1.47873
 Alpha virt. eigenvalues --    1.49920   1.50119   1.51294   1.53765   1.54328
 Alpha virt. eigenvalues --    1.54949   1.55788   1.57283   1.58801   1.59565
 Alpha virt. eigenvalues --    1.62161   1.64678   1.67518   2.05224   2.07878
 Alpha virt. eigenvalues --    2.09938   2.10937   2.11755   2.13346   2.14865
 Alpha virt. eigenvalues --    2.16477   2.18884   2.19497   2.20514   2.21153
 Alpha virt. eigenvalues --    2.21578   2.23420   2.25331   2.25815   2.26735
 Alpha virt. eigenvalues --    2.27928   2.28265   2.29414   2.30391   2.32056
 Alpha virt. eigenvalues --    2.32871   2.34619   2.36019   2.38442   2.39121
 Alpha virt. eigenvalues --    2.39911   2.41115   2.43764   2.44340   2.47200
 Alpha virt. eigenvalues --    2.48478   2.49334   2.50895   2.53563   2.54418
 Alpha virt. eigenvalues --    2.57757   2.59807   2.62132   2.63827   2.65634
 Alpha virt. eigenvalues --    2.67588   2.71219   2.72929   2.75472   2.76381
 Alpha virt. eigenvalues --    2.77340   2.78449   2.80239   2.80382   2.81887
 Alpha virt. eigenvalues --    2.82643   2.83640   2.85915   2.86857   2.94845
 Alpha virt. eigenvalues --    3.21484   3.25226   3.31360   3.35013   3.36273
 Alpha virt. eigenvalues --    3.41398   3.92041   3.97843   3.99395   4.01386
 Alpha virt. eigenvalues --    4.02762   4.03991   4.04664   4.07500   4.11645
 Alpha virt. eigenvalues --    5.25262   5.27291   5.38962  35.38990  35.40051
 Alpha virt. eigenvalues --   35.40727  35.44552  35.44963  35.46670  35.48688
 Alpha virt. eigenvalues --   35.49910  35.51965  35.54865  35.59210  35.63497
 Alpha virt. eigenvalues --   35.88521  35.93502  35.99787  36.06515  36.18778
 Alpha virt. eigenvalues --   36.22122  36.94072  36.94445  37.01000  37.04304
 Alpha virt. eigenvalues --   37.08272  37.12525 113.57499 113.58867 120.21806
 Alpha virt. eigenvalues --  120.23338 120.24588 120.25558
          Condensed to atoms (all electrons):
               1          2          3          4          5          6
     1  Sn  21.336505   0.004241   0.124528  -0.016982   0.178824  -0.018665
     2  Ge   0.004241  31.550701  -0.018377   0.142251  -0.017123   0.075524
     3  Ge   0.124528  -0.018377  31.556357  -0.023102   0.128381   0.088348
     4  Bi  -0.016982   0.142251  -0.023102  22.346736   0.005685   0.155853
     5  Ge   0.178824  -0.017123   0.128381   0.005685  31.514350  -0.023531
     6  Bi  -0.018665   0.075524   0.088348   0.155853  -0.023531  22.289426
     7  Sn  -0.018438  -0.014114   0.145078   0.154270   0.195371   0.145687
     8  Bi   0.165722   0.186553  -0.018376   0.186114   0.144886  -0.024559
     9  Bi   0.166109   0.186270   0.120995  -0.024366  -0.018165   0.188580
               7          8          9
     1  Sn  -0.018438   0.165722   0.166109
     2  Ge  -0.014114   0.186553   0.186270
     3  Ge   0.145078  -0.018376   0.120995
     4  Bi   0.154270   0.186114  -0.024366
     5  Ge   0.195371   0.144886  -0.018165
     6  Bi   0.145687  -0.024559   0.188580
     7  Sn  21.421370  -0.012767  -0.017837
     8  Bi  -0.012767  22.384585  -0.025351
     9  Bi  -0.017837  -0.025351  22.404937
 Mulliken charges:
               1
     1  Sn   0.078155
     2  Ge  -0.095926
     3  Ge  -0.103831
     4  Bi   0.073540
     5  Ge  -0.108677
     6  Bi   0.123338
     7  Sn   0.001380
     8  Bi   0.013193
     9  Bi   0.018828
 Sum of Mulliken charges =   0.00000
 Mulliken charges with hydrogens summed into heavy atoms:
               1
     1  Sn   0.078155
     2  Ge  -0.095926
     3  Ge  -0.103831
     4  Bi   0.073540
     5  Ge  -0.108677
     6  Bi   0.123338
     7  Sn   0.001380
     8  Bi   0.013193
     9  Bi   0.018828
 Electronic spatial extent (au):  <R**2>=           5986.3902
 Charge=              0.0000 electrons
 Dipole moment (field-independent basis, Debye):
    X=              0.0475    Y=             -0.7846    Z=             -1.2523  Tot=              1.4786
 Quadrupole moment (field-independent basis, Debye-Ang):
   XX=           -214.1993   YY=           -215.1640   ZZ=           -224.4867
   XY=             -1.6808   XZ=              0.5432   YZ=             -0.3872
 Traceless Quadrupole moment (field-independent basis, Debye-Ang):
   XX=              3.7507   YY=              2.7860   ZZ=             -6.5367
   XY=             -1.6808   XZ=              0.5432   YZ=             -0.3872
 Octapole moment (field-independent basis, Debye-Ang**2):
  XXX=             20.4410  YYY=            -38.1738  ZZZ=            -98.4247  XYY=              5.7419
  XXY=            -11.1814  XXZ=            -41.7648  XZZ=              4.7060  YZZ=            -12.4423
  YYZ=            -41.1230  XYZ=             -2.5993
 Hexadecapole moment (field-independent basis, Debye-Ang**3):
 XXXX=          -3385.6178 YYYY=          -3409.7632 ZZZZ=          -2923.1573 XXXY=             51.3351
 XXXZ=            -10.2489 YYYX=            102.5539 YYYZ=             19.6337 ZZZX=             -1.5395
 ZZZY=            -12.5801 XXYY=          -1154.2582 XXZZ=          -1057.5333 YYZZ=          -1080.2792
 XXYZ=              4.6936 YYXZ=            -13.9255 ZZXY=             16.6061
 N-N= 3.534016382043D+03 E-N=-2.465927848585D+04  KE= 6.661928824667D+03
 No NMR shielding tensors so no spin-rotation constants.
 Leave Link  601 at Tue Mar  6 16:21:33 2018, MaxMem=   536870912 cpu:         1.4
 (Enter /share/apps//mg09/l701.exe)
 Compute integral first derivatives.
 ... and contract with generalized density number  0.
   1 Symmetry operations used in ECPInt.
 ECPInt:  NShTT=   10440 NPrTT=   41973 LenC2=    9657 LenP2D=   27482.
 LDataN:  DoStor=T MaxTD1= 9 Len=  602
 Leave Link  701 at Tue Mar  6 16:22:02 2018, MaxMem=   536870912 cpu:        98.4
 (Enter /share/apps//mg09/l702.exe)
 L702 exits ... SP integral derivatives will be done elsewhere.
 Leave Link  702 at Tue Mar  6 16:22:02 2018, MaxMem=   536870912 cpu:         0.1
 (Enter /share/apps//mg09/l703.exe)
 Compute integral first derivatives, UseDBF=F ICtDFT=           0.
 Integral derivatives from FoFJK, PRISM(SPDF).
 Calling FoFJK, ICntrl=      2127 FMM=F ISym2X=0 I1Cent= 0 IOpClX= 0 NMat=1 NMatS=1 NMatT=0.
 FoFJK:  IHMeth= 1 ICntrl=    2127 DoSepK=F KAlg= 0 I1Cent=   0 FoldK=F
 IRaf=         0 NMat=   1 IRICut=       1 DoRegI=T DoRafI=F ISym2E= 0.
 FoFCou: FMM=F IPFlag=           0 FMFlag=      100000 FMFlg1=         800
         NFxFlg=           0 DoJE=F BraDBF=F KetDBF=F FulRan=T
         wScrn=  0.000000 ICntrl=    2127 IOpCl=  0 I1Cent=           0 NGrid=           0
         NMat0=    1 NMatS0=      1 NMatT0=    0 NMatD0=    1 NMtDS0=    0 NMtDT0=    0
 Symmetry not used in FoFCou.
 Defaulting to unpruned grid for atomic number  50.
 Defaulting to unpruned grid for atomic number  50.
 Defaulting to unpruned grid for atomic number  50.
 Defaulting to unpruned grid for atomic number  50.
 Leave Link  703 at Tue Mar  6 16:25:42 2018, MaxMem=   536870912 cpu:       828.5
 (Enter /share/apps//mg09/l716.exe)
 Dipole        = 1.86699219D-02-3.08701771D-01-4.92699893D-01
 ***** Axes restored to original set *****
 -------------------------------------------------------------------
 Center     Atomic                   Forces (Hartrees/Bohr)
 Number     Number              X              Y              Z
 -------------------------------------------------------------------
      1       50           0.008532616   -0.011639886    0.001711524
      2       32           0.001911311   -0.000916560    0.011047575
      3       32           0.011291605    0.007557396   -0.007762633
      4       83          -0.007556449    0.002859111    0.002521483
      5       32          -0.010309248   -0.007891716   -0.009888855
      6       83           0.001379486    0.007805199    0.003188324
      7       50          -0.008324457    0.008780898   -0.005838124
      8       83          -0.005388216   -0.007467909    0.001962986
      9       83           0.008463352    0.000913468    0.003057720
 -------------------------------------------------------------------
 Cartesian Forces:  Max     0.011639886 RMS     0.007056808
 Force constants in Cartesian coordinates: 
                1             2             3             4             5 
      1  0.143919D+00
      2 -0.233303D-01  0.155634D+00
      3  0.613757D-02  0.587705D-02  0.965440D-01
      4  0.396494D-02  0.421696D-02  0.337569D-02  0.145012D+00
      5  0.433533D-02  0.559194D-04 -0.480071D-02  0.130449D-01  0.109431D+00
      6  0.197529D-02 -0.247340D-02 -0.609054D-02  0.132692D-01 -0.153495D-01
      7 -0.255277D-01  0.149703D-01  0.224412D-03  0.453277D-02 -0.497336D-03
      8 -0.122508D-01 -0.468501D-01  0.260605D-01 -0.110305D-02  0.380915D-02
      9  0.120168D-01  0.317724D-02 -0.265970D-01 -0.443334D-03 -0.187548D-02
     10 -0.360221D-04  0.653922D-02 -0.142693D-03 -0.555522D-01  0.104617D-01
     11  0.506986D-04  0.243376D-02 -0.131617D-03  0.156241D-01 -0.198817D-01
     12  0.249401D-03 -0.356926D-02  0.570893D-03 -0.320203D-01  0.201677D-01
     13 -0.511039D-01 -0.369995D-03 -0.314486D-01  0.177257D-02  0.221584D-02
     14  0.244253D-01 -0.352976D-01  0.156389D-01  0.172302D-02  0.338829D-02
     15 -0.158929D-01 -0.653135D-02 -0.283891D-01  0.818756D-03  0.149028D-02
     16  0.421741D-02 -0.234822D-02  0.532079D-03 -0.120224D-01 -0.286826D-02
     17  0.625916D-02 -0.490984D-02 -0.471205D-02 -0.685699D-02 -0.412001D-01
     18  0.214183D-02 -0.924366D-03  0.519562D-02 -0.388615D-03  0.270304D-01
     19  0.406766D-02  0.640898D-02  0.189292D-02  0.554764D-02  0.193146D-02
     20  0.727054D-02  0.433892D-03 -0.889776D-03  0.272899D-02  0.296400D-02
     21 -0.306145D-02  0.552348D-02  0.397076D-02 -0.114768D-02 -0.739813D-03
     22 -0.488262D-01 -0.147148D-01  0.219702D-01 -0.346292D-01 -0.260483D-01
     23  0.152156D-01 -0.269187D-01 -0.104647D-01 -0.150001D-01 -0.387928D-01
     24  0.104997D-01  0.571777D-02 -0.203549D-01 -0.201440D-01 -0.315762D-01
     25 -0.306747D-01  0.862780D-02 -0.254152D-02 -0.586257D-01 -0.257529D-02
     26 -0.219756D-01 -0.445808D-01 -0.265776D-01 -0.143777D-01 -0.197740D-01
     27 -0.140663D-01 -0.679717D-02 -0.248498D-01  0.366802D-01  0.565322D-02
                6             7             8             9            10 
      6  0.171524D+00
      7  0.662833D-02  0.182125D+00
      8  0.564939D-02  0.946114D-02  0.151052D+00
      9 -0.545930D-02 -0.238436D-01 -0.231286D-01  0.199189D+00
     10 -0.569141D-03 -0.224049D-02 -0.352044D-02  0.691357D-02  0.165237D+00
     11  0.946429D-02  0.414330D-02  0.417823D-02 -0.326706D-02 -0.192437D-01
     12 -0.343947D-01  0.484736D-02  0.294403D-02  0.672208D-03 -0.134282D-01
     13 -0.375471D-02 -0.458853D-01 -0.208890D-01 -0.149050D-01 -0.808874D-03
     14 -0.486669D-02 -0.171197D-01 -0.332755D-01 -0.913843D-02  0.119819D-02
     15 -0.233975D-02  0.132781D-01  0.131477D-01 -0.330564D-01  0.204073D-02
     16 -0.639719D-02 -0.244027D-01  0.106717D-01  0.181316D-01 -0.483155D-01
     17 -0.521923D-02 -0.904856D-02 -0.370727D-01  0.288252D-02  0.189386D-02
     18 -0.287980D-01  0.690050D-02 -0.272717D-01 -0.419054D-01  0.840053D-02
     19 -0.517155D-02 -0.546786D-01  0.221961D-01 -0.116541D-01 -0.258980D-01
     20  0.660537D-02 -0.101781D-02 -0.228489D-01  0.105443D-01  0.100440D-01
     21 -0.300454D-02  0.200834D-01 -0.222609D-02 -0.299277D-01 -0.733830D-02
     22 -0.600195D-02  0.147999D-02 -0.146788D-02  0.598066D-02 -0.263524D-01
     23  0.373984D-05 -0.664486D-02  0.644698D-03  0.801797D-02 -0.654716D-02
     24 -0.468178D-01  0.244185D-02 -0.600131D-03  0.186921D-02  0.714965D-02
     25  0.216911D-04 -0.354028D-01 -0.309790D-02  0.780339D-02 -0.603403D-02
     26  0.618600D-02  0.575354D-02 -0.196366D-01  0.127875D-01 -0.825655D-03
     27 -0.446198D-01 -0.305604D-01  0.542491D-02 -0.647845D-01 -0.302617D-02
               11            12            13            14            15 
     11  0.120820D+00
     12 -0.151818D-01  0.112403D+00
     13  0.201096D-02  0.330254D-02  0.131466D+00
     14  0.233863D-02 -0.663396D-02  0.822845D-02  0.144391D+00
     15 -0.669813D-02 -0.377612D-02  0.331976D-01  0.314018D-02  0.153449D+00
     16 -0.309702D-01 -0.111249D-02  0.486589D-02 -0.298218D-02 -0.366765D-02
     17 -0.374978D-01 -0.533352D-02 -0.293833D-02 -0.222462D-02 -0.978522D-02
     18  0.573618D-02 -0.149704D-01 -0.123316D-03 -0.307151D-04  0.897343D-03
     19 -0.316987D-02  0.259546D-01 -0.213390D-01 -0.858582D-02 -0.102358D-01
     20 -0.220993D-01  0.755462D-02  0.203087D-01 -0.553217D-01  0.945921D-02
     21  0.161389D-01 -0.461578D-01 -0.199387D-02 -0.166557D-01 -0.289143D-01
     22  0.279168D-01  0.890206D-02 -0.174573D-01 -0.294824D-02 -0.105188D-01
     23 -0.565186D-01  0.271701D-02 -0.818331D-02 -0.305850D-01 -0.744935D-03
     24 -0.398348D-02 -0.198940D-01  0.162877D-01  0.217108D-01 -0.586296D-01
     25  0.363794D-02  0.330501D-02 -0.150963D-02 -0.393902D-02 -0.901996D-02
     26  0.622638D-02 -0.266478D-02 -0.383335D-03  0.658612D-02 -0.347773D-02
     27 -0.207724D-02  0.554733D-02 -0.562244D-03 -0.316440D-02  0.759052D-03
               16            17            18            19            20 
     16  0.147933D+00
     17  0.798066D-02  0.209959D+00
     18  0.155009D-01  0.190820D-01  0.136961D+00
     19 -0.318848D-01  0.880059D-02 -0.200365D-01  0.123892D+00
     20 -0.162541D-01 -0.320829D-01 -0.244910D-01 -0.251560D-01  0.126962D+00
     21 -0.225019D-01  0.809201D-02 -0.410666D-01  0.254073D-01 -0.200128D-01
     22  0.394995D-02 -0.634299D-02 -0.100735D-02  0.155550D-02 -0.166733D-02
     23 -0.157432D-02 -0.475350D-02 -0.423056D-02 -0.966958D-03 -0.241300D-02
     24  0.191979D-02  0.376665D-02  0.464634D-02 -0.264092D-02  0.636817D-02
     25 -0.443410D-01  0.252599D-03 -0.113880D-01 -0.126290D-02  0.374301D-02
     26  0.383449D-01 -0.502170D-01  0.509977D-02 -0.145857D-02  0.440593D-02
     27 -0.240509D-02 -0.877319D-02 -0.209596D-01 -0.351584D-02  0.486199D-02
               21            22            23            24            25 
     21  0.136757D+00
     22 -0.219387D-02  0.124525D+00
     23  0.714293D-02  0.291298D-01  0.159073D+00
     24  0.368720D-02 -0.139950D-01 -0.485173D-02  0.129178D+00
     25 -0.725361D-02 -0.424548D-02 -0.542872D-02 -0.151877D-02  0.182096D+00
     26  0.273710D-02 -0.385714D-02  0.263467D-03  0.344811D-02 -0.122042D-02
     27  0.465611D-02 -0.313592D-02  0.241028D-02  0.631597D-02  0.205917D-01
               26            27 
     26  0.116726D+00
     27  0.246159D-02  0.137935D+00
 Leave Link  716 at Tue Mar  6 16:25:42 2018, MaxMem=   536870912 cpu:         0.1
 (Enter /share/apps//mg09/l103.exe)

 GradGradGradGradGradGradGradGradGradGradGradGradGradGradGradGradGradGrad
 Berny optimization.
 Search for a local minimum.
 Step number   1 out of a maximum of  100
 All quantities printed in internal units (Hartrees-Bohrs-Radians)
 Second derivative matrix not updated -- first step.
 ITU=  0
     Eigenvalues ---    0.06934   0.08902   0.11393   0.11948   0.12701
     Eigenvalues ---    0.12836   0.13468   0.14462   0.15383   0.16045
     Eigenvalues ---    0.16373   0.20921   0.21802   0.22350   0.23127
     Eigenvalues ---    0.24273   0.26008   0.26271   0.27381   0.27645
     Eigenvalues ---    0.29941
 RFO step:  Lambda=-8.21144730D-03 EMin= 6.93418050D-02
 Linear search not attempted -- first point.
 TrRot=  0.000315 -0.000344 -0.000765 -0.000014  0.000020 -0.000014
 Variable       Old X    -DE/DX   Delta X   Delta X   Delta X     New X
                                 (Linear)    (Quad)   (Total)
    X1       -2.76011   0.00853   0.00000   0.04908   0.04954  -2.71057
    Y1        4.23830  -0.01164   0.00000  -0.07561  -0.07588   4.16243
    Z1        1.67312   0.00171   0.00000  -0.00281  -0.00352   1.66960
    X2       -0.37495   0.00191   0.00000   0.00435   0.00460  -0.37035
    Y2        0.74430  -0.00092   0.00000  -0.00196  -0.00229   0.74201
    Z2       -4.36318   0.01105   0.00000   0.06611   0.06536  -4.29783
    X3       -2.67855   0.01129   0.00000   0.05512   0.05548  -2.62307
    Y3       -1.00304   0.00756   0.00000   0.03681   0.03654  -0.96650
    Z3        3.84358  -0.00776   0.00000  -0.04281  -0.04352   3.80007
    X4        4.06894  -0.00756   0.00000  -0.04754  -0.04730   4.02164
    Y4       -1.24155   0.00286   0.00000   0.02411   0.02365  -1.21790
    Z4       -1.60279   0.00252   0.00000   0.03093   0.03008  -1.57271
    X5        1.47996  -0.01031   0.00000  -0.04338  -0.04292   1.43704
    Y5        2.35639  -0.00789   0.00000  -0.05366  -0.05405   2.30234
    Z5        4.26992  -0.00989   0.00000  -0.06683  -0.06762   4.20230
    X6       -0.85980   0.00138   0.00000   0.00930   0.00948  -0.85032
    Y6       -4.23480   0.00781   0.00000   0.05513   0.05481  -4.17999
    Z6       -0.77997   0.00319   0.00000   0.02078   0.02003  -0.75994
    X7        2.52868  -0.00832   0.00000  -0.05298  -0.05267   2.47601
    Y7       -2.98993   0.00878   0.00000   0.06152   0.06111  -2.92882
    Z7        3.74326  -0.00584   0.00000  -0.04056  -0.04138   3.70188
    X8        2.34046  -0.00539   0.00000  -0.03487  -0.03446   2.30600
    Y8        4.13609  -0.00747   0.00000  -0.05133  -0.05173   4.08436
    Z8       -1.02745   0.00196   0.00000   0.01711   0.01630  -1.01115
    X9       -4.80352   0.00846   0.00000   0.05796   0.05824  -4.74527
    Y9       -0.22051   0.00091   0.00000   0.00806   0.00785  -0.21266
    Z9       -1.29857   0.00306   0.00000   0.02493   0.02426  -1.27430
         Item               Value     Threshold  Converged?
 Maximum Force            0.011640     0.000450     NO 
 RMS     Force            0.007057     0.000300     NO 
 Maximum Displacement     0.075878     0.001800     NO 
 RMS     Displacement     0.043781     0.001200     NO 
 Predicted change in Energy=-4.318217D-03
 Lowest energy point so far.  Saving SCF results.
 GradGradGradGradGradGradGradGradGradGradGradGradGradGradGradGradGradGrad

 Leave Link  103 at Tue Mar  6 16:25:42 2018, MaxMem=   536870912 cpu:         0.1
 (Enter /share/apps//mg09/l202.exe)
                          Input orientation:                          
 ---------------------------------------------------------------------
 Center     Atomic      Atomic             Coordinates (Angstroms)
 Number     Number       Type             X           Y           Z
 ---------------------------------------------------------------------
      1         50           0       -1.434372    2.202661    0.883514
      2         32           0       -0.195983    0.392654   -2.274312
      3         32           0       -1.388069   -0.511450    2.010908
      4         83           0        2.128161   -0.644484   -0.832243
      5         32           0        0.760450    1.218345    2.223762
      6         83           0       -0.449970   -2.211956   -0.402144
      7         50           0        1.310250   -1.549866    1.958952
      8         83           0        1.220283    2.161350   -0.535077
      9         83           0       -2.511091   -0.112537   -0.674333
 ---------------------------------------------------------------------
                    Distance matrix (angstroms):
                    1          2          3          4          5
     1  Sn   0.000000
     2  Ge   3.844685   0.000000
     3  Ge   2.939313   4.538897   0.000000
     4  Bi   4.872545   2.925211   4.523835   0.000000
     5  Ge   2.753612   4.672173   2.766519   3.831440   0.000000
     6  Bi   4.702213   3.217688   3.097511   3.047739   4.486364
     7  Sn   4.771894   4.895165   2.891700   3.046221   2.834678
     8  Bi   3.010199   2.856402   4.519890   2.963993   2.951593
     9  Bi   2.991045   2.859174   2.937827   4.672318   4.568717
                    6          7          8          9
     6  Bi   0.000000
     7  Sn   3.018527   0.000000
     8  Bi   4.683292   4.472293   0.000000
     9  Bi   2.954635   4.858265   4.371854   0.000000
 Stoichiometry    Bi4Ge3Sn2
 Framework group  C1[X(Bi4Ge3Sn2)]
 Deg. of freedom    21
 Full point group                 C1      NOp   1
 RotChk:  IX=0 Diff= 3.84D-02
 Largest Abelian subgroup         C1      NOp   1
 Largest concise Abelian subgroup C1      NOp   1
                         Standard orientation:                         
 ---------------------------------------------------------------------
 Center     Atomic      Atomic             Coordinates (Angstroms)
 Number     Number       Type             X           Y           Z
 ---------------------------------------------------------------------
      1         50           0       -1.376744    2.237745    0.878201
      2         32           0       -0.177117    0.399355   -2.278193
      3         32           0       -1.407190   -0.478156    2.001817
      4         83           0        2.113523   -0.701904   -0.830071
      5         32           0        0.786378    1.192906    2.224157
      6         83           0       -0.507248   -2.200015   -0.410626
      7         50           0        1.262369   -1.588735    1.957137
      8         83           0        1.280492    2.126939   -0.531806
      9         83           0       -2.510231   -0.045524   -0.686483
 ---------------------------------------------------------------------
 Rotational constants (GHZ):      0.1010625      0.0975312      0.0797811
 Leave Link  202 at Tue Mar  6 16:25:43 2018, MaxMem=   536870912 cpu:         0.0
 (Enter /share/apps//mg09/l301.exe)
 Standard basis: def2TZVP (5D, 7F)
 Ernie: Thresh=  0.10000D-02 Tol=  0.10000D-05 Strict=F.
 There are   519 symmetry adapted cartesian basis functions of A   symmetry.
 There are   444 symmetry adapted basis functions of A   symmetry.
   444 basis functions,   963 primitive gaussians,   519 cartesian basis functions
   116 alpha electrons      116 beta electrons
       nuclear repulsion energy      3589.9176672390 Hartrees.
 IExCor= 1009 DFT=T Ex+Corr=PBE1PBE ExCW=0 ScaHFX=  0.250000
 ScaDFX=  0.750000  0.750000  1.000000  1.000000 ScalE2=  1.000000  1.000000
 IRadAn=      0 IRanWt=     -1 IRanGd=            0 ICorTp=0 IEmpDi=  4
 NAtoms=    9 NActive=    9 NUniq=    9 SFac= 1.00D+00 NAtFMM=   60 NAOKFM=F Big=F
 Integral buffers will be    131072 words long.
 Raffenetti 2 integral format.
 Two-electron integral symmetry is turned on.
 Leave Link  301 at Tue Mar  6 16:25:43 2018, MaxMem=   536870912 cpu:         0.3
 (Enter /share/apps//mg09/l302.exe)
 NPDir=0 NMtPBC=     1 NCelOv=     1 NCel=       1 NClECP=     1 NCelD=      1
         NCelK=      1 NCelE2=     1 NClLst=     1 CellRange=     0.0.
 One-electron integrals computed using PRISM.
   1 Symmetry operations used in ECPInt.
 ECPInt:  NShTT=   10440 NPrTT=   41973 LenC2=    9685 LenP2D=   27685.
 LDataN:  DoStor=T MaxTD1= 8 Len=  415
 NBasis=   444 RedAO= T EigKep=  1.04D-03  NBF=   444
 NBsUse=   444 1.00D-06 EigRej= -1.00D+00 NBFU=   444
 Precomputing XC quadrature grid using
 IXCGrd= 4 IRadAn=           0 IRanWt=          -1 IRanGd=           0 AccXCQ= 0.00D+00.
 Defaulting to unpruned grid for atomic number  50.
 Defaulting to unpruned grid for atomic number  83.
 Defaulting to unpruned grid for atomic number  50.
 Generated NRdTot=       0 NPtTot=           0 NUsed=           0 NTot=          32
 NSgBfM=   500   501   503   503   503 MxSgAt=     9 MxSgA2=     9.
 Leave Link  302 at Tue Mar  6 16:25:52 2018, MaxMem=   536870912 cpu:        31.8
 (Enter /share/apps//mg09/l303.exe)
 DipDrv:  MaxL=1.
 Leave Link  303 at Tue Mar  6 16:25:52 2018, MaxMem=   536870912 cpu:         0.4
 (Enter /share/apps//mg09/l401.exe)
 Initial guess from the checkpoint file:  "Isomer_53.chk"
 B after Tr=     0.000000    0.000000    0.000000
         Rot=    0.999909   -0.000628    0.001653    0.013384 Ang=  -1.55 deg.
 Guess basis will be translated and rotated to current coordinates.
 JPrj=2 DoOrth=T DoCkMO=T.
 Generating alternative initial guess.
 ExpMin= 4.62D-02 ExpMax= 4.66D+05 ExpMxC= 4.50D+03 IAcc=2 IRadAn=         4 AccDes= 0.00D+00
 Harris functional with IExCor= 1009 and IRadAn=       4 diagonalized for initial guess.
 HarFok:  IExCor= 1009 AccDes= 0.00D+00 IRadAn=         4 IDoV= 1 UseB2=F ITyADJ=14
 ICtDFT=  3500011 ScaDFX=  1.000000  1.000000  1.000000  1.000000
 Defaulting to unpruned grid for atomic number  50.
 Defaulting to unpruned grid for atomic number  50.
 Defaulting to unpruned grid for atomic number  50.
 Defaulting to unpruned grid for atomic number  50.
 FoFCou: FMM=F IPFlag=           0 FMFlag=      100000 FMFlg1=           0
         NFxFlg=           0 DoJE=T BraDBF=F KetDBF=T FulRan=T
         wScrn=  0.000000 ICntrl=     500 IOpCl=  0 I1Cent=   200000004 NGrid=           0
         NMat0=    1 NMatS0=      1 NMatT0=    0 NMatD0=    1 NMtDS0=    0 NMtDT0=    0
 Petite list used in FoFCou.
 Harris En= -7518.61513306385    
 Leave Link  401 at Tue Mar  6 16:25:56 2018, MaxMem=   536870912 cpu:        15.0
 (Enter /share/apps//mg09/l502.exe)
 Closed shell SCF:
 Using DIIS extrapolation, IDIIS=  1040.
 Integral symmetry usage will be decided dynamically.
 IVT=     1410107 IEndB=     1410107 NGot=   536870912 MDV=   536322046
 LenX=   536322046 LenY=   536052166
 Requested convergence on RMS density matrix=1.00D-08 within 768 cycles.
 Requested convergence on MAX density matrix=1.00D-06.
 Requested convergence on             energy=1.00D-06.
 No special actions if energy rises.
 Fock matrices will be formed incrementally for  20 cycles.

 Cycle   1  Pass 1  IDiag  1:
 FoFJK:  IHMeth= 1 ICntrl=       0 DoSepK=F KAlg= 0 I1Cent=   0 FoldK=F
 IRaf= 880000000 NMat=   1 IRICut=       1 DoRegI=T DoRafI=F ISym2E= 0.
 FoFCou: FMM=F IPFlag=           0 FMFlag=      100000 FMFlg1=           0
         NFxFlg=           0 DoJE=F BraDBF=F KetDBF=F FulRan=T
         wScrn=  0.000000 ICntrl=       0 IOpCl=  0 I1Cent=           0 NGrid=           0
         NMat0=    1 NMatS0=      1 NMatT0=    0 NMatD0=    1 NMtDS0=    0 NMtDT0=    0
 Symmetry not used in FoFCou.
 Defaulting to unpruned grid for atomic number  50.
 Defaulting to unpruned grid for atomic number  50.
 Defaulting to unpruned grid for atomic number  50.
 Defaulting to unpruned grid for atomic number  50.
 E= -7517.80870560813    
 DIIS: error= 5.27D-03 at cycle   1 NSaved=   1.
 NSaved= 1 IEnMin= 1 EnMin= -7517.80870560813     IErMin= 1 ErrMin= 5.27D-03
 ErrMax= 5.27D-03  0.00D+00 EMaxC= 1.00D-01 BMatC= 8.45D-03 BMatP= 8.45D-03
 IDIUse=3 WtCom= 9.47D-01 WtEn= 5.27D-02
 Coeff-Com:  0.100D+01
 Coeff-En:   0.100D+01
 Coeff:      0.100D+01
 Gap=     7.152 Goal=   None    Shift=    0.000
 GapD=    7.152 DampG=2.000 DampE=1.000 DampFc=2.0000 IDamp=-1.
 RMSDP=1.89D-04 MaxDP=4.42D-03              OVMax= 2.42D-02

 Cycle   2  Pass 1  IDiag  1:
 RMSU=  1.88D-04    CP:  1.00D+00
 E= -7517.80876827947     Delta-E=       -0.000062671334 Rises=F Damp=F
 DIIS: error= 1.22D-03 at cycle   2 NSaved=   2.
 NSaved= 2 IEnMin= 2 EnMin= -7517.80876827947     IErMin= 2 ErrMin= 1.22D-03
 ErrMax= 1.22D-03  0.00D+00 EMaxC= 1.00D-01 BMatC= 1.61D-03 BMatP= 8.45D-03
 IDIUse=3 WtCom= 9.88D-01 WtEn= 1.22D-02
 Coeff-Com:  0.199D+00 0.801D+00
 Coeff-En:   0.483D+00 0.517D+00
 Coeff:      0.202D+00 0.798D+00
 Gap=     0.115 Goal=   None    Shift=    0.000
 RMSDP=2.14D-04 MaxDP=9.05D-03 DE=-6.27D-05 OVMax= 1.84D-02

 Cycle   3  Pass 1  IDiag  1:
 RMSU=  1.97D-04    CP:  9.99D-01  5.76D-01
 E= -7517.80675244002     Delta-E=        0.002015839447 Rises=F Damp=F
 DIIS: error= 1.73D-03 at cycle   3 NSaved=   3.
 NSaved= 3 IEnMin= 2 EnMin= -7517.80876827947     IErMin= 2 ErrMin= 1.22D-03
 ErrMax= 1.73D-03  0.00D+00 EMaxC= 1.00D-01 BMatC= 3.86D-03 BMatP= 1.61D-03
 IDIUse=3 WtCom= 1.94D-01 WtEn= 8.06D-01
 Coeff-Com:  0.717D-02 0.606D+00 0.387D+00
 Coeff-En:   0.000D+00 0.668D+00 0.332D+00
 Coeff:      0.139D-02 0.656D+00 0.343D+00
 Gap=     0.117 Goal=   None    Shift=    0.000
 RMSDP=1.21D-04 MaxDP=4.99D-03 DE= 2.02D-03 OVMax= 1.44D-02

 Cycle   4  Pass 1  IDiag  1:
 RMSU=  4.41D-05    CP:  9.99D-01  8.22D-01  4.85D-01
 E= -7517.80987456298     Delta-E=       -0.003122122966 Rises=F Damp=F
 DIIS: error= 4.18D-04 at cycle   4 NSaved=   4.
 NSaved= 4 IEnMin= 4 EnMin= -7517.80987456298     IErMin= 4 ErrMin= 4.18D-04
 ErrMax= 4.18D-04  0.00D+00 EMaxC= 1.00D-01 BMatC= 2.29D-04 BMatP= 1.61D-03
 IDIUse=3 WtCom= 9.96D-01 WtEn= 4.18D-03
 Coeff-Com:  0.111D-03 0.441D+00 0.239D+00 0.320D+00
 Coeff-En:   0.000D+00 0.935D-01 0.000D+00 0.906D+00
 Coeff:      0.110D-03 0.439D+00 0.238D+00 0.322D+00
 Gap=     0.117 Goal=   None    Shift=    0.000
 RMSDP=4.02D-05 MaxDP=1.68D-03 DE=-3.12D-03 OVMax= 5.18D-03

 Cycle   5  Pass 1  IDiag  1:
 RMSU=  1.53D-05    CP:  9.99D-01  8.77D-01  4.43D-01  2.14D-01
 E= -7517.81006282352     Delta-E=       -0.000188260539 Rises=F Damp=F
 DIIS: error= 1.04D-04 at cycle   5 NSaved=   5.
 NSaved= 5 IEnMin= 5 EnMin= -7517.81006282352     IErMin= 5 ErrMin= 1.04D-04
 ErrMax= 1.04D-04  0.00D+00 EMaxC= 1.00D-01 BMatC= 1.97D-05 BMatP= 2.29D-04
 IDIUse=3 WtCom= 9.99D-01 WtEn= 1.04D-03
 Coeff-Com: -0.101D-02 0.228D+00 0.113D+00 0.248D+00 0.412D+00
 Coeff-En:   0.000D+00 0.000D+00 0.000D+00 0.111D+00 0.889D+00
 Coeff:     -0.101D-02 0.228D+00 0.113D+00 0.247D+00 0.413D+00
 Gap=     0.117 Goal=   None    Shift=    0.000
 RMSDP=1.10D-05 MaxDP=6.48D-04 DE=-1.88D-04 OVMax= 1.67D-03

 Cycle   6  Pass 1  IDiag  1:
 RMSU=  4.30D-06    CP:  9.99D-01  8.85D-01  4.35D-01  3.92D-01  6.08D-01
 E= -7517.81008313815     Delta-E=       -0.000020314630 Rises=F Damp=F
 DIIS: error= 1.55D-05 at cycle   6 NSaved=   6.
 NSaved= 6 IEnMin= 6 EnMin= -7517.81008313815     IErMin= 6 ErrMin= 1.55D-05
 ErrMax= 1.55D-05  0.00D+00 EMaxC= 1.00D-01 BMatC= 5.97D-07 BMatP= 1.97D-05
 IDIUse=1 WtCom= 1.00D+00 WtEn= 0.00D+00
 Coeff-Com: -0.521D-03 0.885D-01 0.444D-01 0.108D+00 0.218D+00 0.542D+00
 Coeff:     -0.521D-03 0.885D-01 0.444D-01 0.108D+00 0.218D+00 0.542D+00
 Gap=     0.117 Goal=   None    Shift=    0.000
 RMSDP=3.79D-06 MaxDP=1.64D-04 DE=-2.03D-05 OVMax= 4.67D-04

 Cycle   7  Pass 1  IDiag  1:
 RMSU=  3.25D-06    CP:  9.99D-01  8.87D-01  4.38D-01  3.89D-01  6.68D-01
                    CP:  6.46D-01
 E= -7517.81008303165     Delta-E=        0.000000106502 Rises=F Damp=F
 DIIS: error= 2.20D-05 at cycle   7 NSaved=   7.
 NSaved= 7 IEnMin= 6 EnMin= -7517.81008313815     IErMin= 6 ErrMin= 1.55D-05
 ErrMax= 2.20D-05  0.00D+00 EMaxC= 1.00D-01 BMatC= 5.90D-07 BMatP= 5.97D-07
 IDIUse=1 WtCom= 1.00D+00 WtEn= 0.00D+00
 Coeff-Com: -0.174D-03 0.119D-01 0.722D-02 0.245D-01 0.761D-01 0.495D+00
 Coeff-Com:  0.386D+00
 Coeff:     -0.174D-03 0.119D-01 0.722D-02 0.245D-01 0.761D-01 0.495D+00
 Coeff:      0.386D+00
 Gap=     0.117 Goal=   None    Shift=    0.000
 RMSDP=2.53D-06 MaxDP=9.87D-05 DE= 1.07D-07 OVMax= 2.95D-04

 Cycle   8  Pass 1  IDiag  1:
 RMSU=  9.10D-07    CP:  9.99D-01  8.89D-01  4.40D-01  3.91D-01  6.77D-01
                    CP:  9.92D-01  4.68D-01
 E= -7517.81008378857     Delta-E=       -0.000000756918 Rises=F Damp=F
 DIIS: error= 4.75D-06 at cycle   8 NSaved=   8.
 NSaved= 8 IEnMin= 8 EnMin= -7517.81008378857     IErMin= 8 ErrMin= 4.75D-06
 ErrMax= 4.75D-06  0.00D+00 EMaxC= 1.00D-01 BMatC= 4.72D-08 BMatP= 5.90D-07
 IDIUse=1 WtCom= 1.00D+00 WtEn= 0.00D+00
 Coeff-Com:  0.176D-04-0.162D-01-0.677D-02-0.114D-01-0.531D-02 0.201D+00
 Coeff-Com:  0.268D+00 0.570D+00
 Coeff:      0.176D-04-0.162D-01-0.677D-02-0.114D-01-0.531D-02 0.201D+00
 Coeff:      0.268D+00 0.570D+00
 Gap=     0.117 Goal=   None    Shift=    0.000
 RMSDP=7.87D-07 MaxDP=4.46D-05 DE=-7.57D-07 OVMax= 8.66D-05

 Cycle   9  Pass 1  IDiag  1:
 RMSU=  3.58D-07    CP:  9.99D-01  8.90D-01  4.41D-01  3.93D-01  6.93D-01
                    CP:  1.01D+00  5.93D-01  5.81D-01
 E= -7517.81008384150     Delta-E=       -0.000000052933 Rises=F Damp=F
 DIIS: error= 1.58D-06 at cycle   9 NSaved=   9.
 NSaved= 9 IEnMin= 9 EnMin= -7517.81008384150     IErMin= 9 ErrMin= 1.58D-06
 ErrMax= 1.58D-06  0.00D+00 EMaxC= 1.00D-01 BMatC= 3.77D-09 BMatP= 4.72D-08
 IDIUse=1 WtCom= 1.00D+00 WtEn= 0.00D+00
 Coeff-Com:  0.234D-04-0.101D-01-0.430D-02-0.791D-02-0.882D-02 0.742D-01
 Coeff-Com:  0.127D+00 0.347D+00 0.483D+00
 Coeff:      0.234D-04-0.101D-01-0.430D-02-0.791D-02-0.882D-02 0.742D-01
 Coeff:      0.127D+00 0.347D+00 0.483D+00
 Gap=     0.117 Goal=   None    Shift=    0.000
 RMSDP=2.30D-07 MaxDP=1.08D-05 DE=-5.29D-08 OVMax= 3.46D-05

 Cycle  10  Pass 1  IDiag  1:
 RMSU=  1.47D-07    CP:  9.99D-01  8.90D-01  4.42D-01  3.95D-01  6.97D-01
                    CP:  1.01D+00  5.96D-01  6.98D-01  7.23D-01
 E= -7517.81008384597     Delta-E=       -0.000000004471 Rises=F Damp=F
 DIIS: error= 1.06D-06 at cycle  10 NSaved=  10.
 NSaved=10 IEnMin=10 EnMin= -7517.81008384597     IErMin=10 ErrMin= 1.06D-06
 ErrMax= 1.06D-06  0.00D+00 EMaxC= 1.00D-01 BMatC= 6.16D-10 BMatP= 3.77D-09
 IDIUse=1 WtCom= 1.00D+00 WtEn= 0.00D+00
 Coeff-Com:  0.125D-04-0.455D-02-0.192D-02-0.375D-02-0.510D-02 0.242D-01
 Coeff-Com:  0.511D-01 0.156D+00 0.321D+00 0.463D+00
 Coeff:      0.125D-04-0.455D-02-0.192D-02-0.375D-02-0.510D-02 0.242D-01
 Coeff:      0.511D-01 0.156D+00 0.321D+00 0.463D+00
 Gap=     0.117 Goal=   None    Shift=    0.000
 RMSDP=1.18D-07 MaxDP=4.43D-06 DE=-4.47D-09 OVMax= 1.40D-05

 Cycle  11  Pass 1  IDiag  1:
 RMSU=  9.13D-08    CP:  9.99D-01  8.90D-01  4.42D-01  3.95D-01  6.98D-01
                    CP:  1.02D+00  5.99D-01  7.04D-01  8.09D-01  5.69D-01
 E= -7517.81008384614     Delta-E=       -0.000000000164 Rises=F Damp=F
 DIIS: error= 7.80D-07 at cycle  11 NSaved=  11.
 NSaved=11 IEnMin=11 EnMin= -7517.81008384614     IErMin=11 ErrMin= 7.80D-07
 ErrMax= 7.80D-07  0.00D+00 EMaxC= 1.00D-01 BMatC= 3.85D-10 BMatP= 6.16D-10
 IDIUse=1 WtCom= 1.00D+00 WtEn= 0.00D+00
 Coeff-Com:  0.869D-06 0.353D-03 0.200D-03 0.859D-04-0.801D-03-0.111D-01
 Coeff-Com: -0.979D-02-0.148D-01 0.842D-01 0.465D+00 0.487D+00
 Coeff:      0.869D-06 0.353D-03 0.200D-03 0.859D-04-0.801D-03-0.111D-01
 Coeff:     -0.979D-02-0.148D-01 0.842D-01 0.465D+00 0.487D+00
 Gap=     0.117 Goal=   None    Shift=    0.000
 RMSDP=6.48D-08 MaxDP=2.22D-06 DE=-1.64D-10 OVMax= 9.43D-06

 Cycle  12  Pass 1  IDiag  1:
 RMSU=  2.18D-08    CP:  9.99D-01  8.90D-01  4.42D-01  3.95D-01  6.99D-01
                    CP:  1.02D+00  6.03D-01  7.08D-01  8.47D-01  8.43D-01
                    CP:  6.37D-01
 E= -7517.81008384679     Delta-E=       -0.000000000655 Rises=F Damp=F
 DIIS: error= 6.27D-08 at cycle  12 NSaved=  12.
 NSaved=12 IEnMin=12 EnMin= -7517.81008384679     IErMin=12 ErrMin= 6.27D-08
 ErrMax= 6.27D-08  0.00D+00 EMaxC= 1.00D-01 BMatC= 1.05D-11 BMatP= 3.85D-10
 IDIUse=1 WtCom= 1.00D+00 WtEn= 0.00D+00
 Coeff-Com: -0.695D-06 0.616D-03 0.287D-03 0.416D-03 0.518D-04-0.823D-02
 Coeff-Com: -0.984D-02-0.234D-01 0.176D-01 0.215D+00 0.253D+00 0.555D+00
 Coeff:     -0.695D-06 0.616D-03 0.287D-03 0.416D-03 0.518D-04-0.823D-02
 Coeff:     -0.984D-02-0.234D-01 0.176D-01 0.215D+00 0.253D+00 0.555D+00
 Gap=     0.117 Goal=   None    Shift=    0.000
 RMSDP=1.38D-08 MaxDP=7.60D-07 DE=-6.55D-10 OVMax= 2.44D-06

 Cycle  13  Pass 1  IDiag  1:
 RMSU=  8.85D-09    CP:  9.99D-01  8.90D-01  4.42D-01  3.95D-01  6.99D-01
                    CP:  1.02D+00  6.04D-01  7.08D-01  8.59D-01  8.70D-01
                    CP:  6.68D-01  7.55D-01
 E= -7517.81008384647     Delta-E=        0.000000000317 Rises=F Damp=F
 DIIS: error= 2.76D-08 at cycle  13 NSaved=  13.
 NSaved=13 IEnMin=12 EnMin= -7517.81008384679     IErMin=13 ErrMin= 2.76D-08
 ErrMax= 2.76D-08  0.00D+00 EMaxC= 1.00D-01 BMatC= 1.35D-12 BMatP= 1.05D-11
 IDIUse=1 WtCom= 1.00D+00 WtEn= 0.00D+00
 Coeff-Com: -0.425D-06 0.256D-03 0.116D-03 0.187D-03 0.159D-03-0.273D-02
 Coeff-Com: -0.365D-02-0.991D-02-0.342D-02 0.430D-01 0.601D-01 0.293D+00
 Coeff-Com:  0.623D+00
 Coeff:     -0.425D-06 0.256D-03 0.116D-03 0.187D-03 0.159D-03-0.273D-02
 Coeff:     -0.365D-02-0.991D-02-0.342D-02 0.430D-01 0.601D-01 0.293D+00
 Coeff:      0.623D+00
 Gap=     0.117 Goal=   None    Shift=    0.000
 RMSDP=5.03D-09 MaxDP=4.03D-07 DE= 3.17D-10 OVMax= 7.04D-07

 SCF Done:  E(RPBE1PBE) =  -7517.81008385     A.U. after   13 cycles
            NFock= 13  Conv=0.50D-08     -V/T= 2.1284
 KE= 6.662144664031D+03 PE=-2.477115833024D+04 EE= 7.001285915121D+03
 Leave Link  502 at Tue Mar  6 16:37:29 2018, MaxMem=   536870912 cpu:      2706.0
 (Enter /share/apps//mg09/l701.exe)
 Compute integral first derivatives.
 ... and contract with generalized density number  0.
   1 Symmetry operations used in ECPInt.
 ECPInt:  NShTT=   10440 NPrTT=   41973 LenC2=    9685 LenP2D=   27685.
 LDataN:  DoStor=T MaxTD1= 9 Len=  602
 Leave Link  701 at Tue Mar  6 16:37:54 2018, MaxMem=   536870912 cpu:        91.6
 (Enter /share/apps//mg09/l702.exe)
 L702 exits ... SP integral derivatives will be done elsewhere.
 Leave Link  702 at Tue Mar  6 16:37:54 2018, MaxMem=   536870912 cpu:         0.0
 (Enter /share/apps//mg09/l703.exe)
 Compute integral first derivatives, UseDBF=F ICtDFT=           0.
 Integral derivatives from FoFJK, PRISM(SPDF).
 Calling FoFJK, ICntrl=      2127 FMM=F ISym2X=0 I1Cent= 0 IOpClX= 0 NMat=1 NMatS=1 NMatT=0.
 FoFJK:  IHMeth= 1 ICntrl=    2127 DoSepK=F KAlg= 0 I1Cent=   0 FoldK=F
 IRaf=         0 NMat=   1 IRICut=       1 DoRegI=T DoRafI=F ISym2E= 0.
 FoFCou: FMM=F IPFlag=           0 FMFlag=      100000 FMFlg1=         800
         NFxFlg=           0 DoJE=F BraDBF=F KetDBF=F FulRan=T
         wScrn=  0.000000 ICntrl=    2127 IOpCl=  0 I1Cent=           0 NGrid=           0
         NMat0=    1 NMatS0=      1 NMatT0=    0 NMatD0=    1 NMtDS0=    0 NMtDT0=    0
 Symmetry not used in FoFCou.
 Defaulting to unpruned grid for atomic number  50.
 Defaulting to unpruned grid for atomic number  50.
 Defaulting to unpruned grid for atomic number  50.
 Defaulting to unpruned grid for atomic number  50.
 Leave Link  703 at Tue Mar  6 16:41:53 2018, MaxMem=   536870912 cpu:       882.5
 (Enter /share/apps//mg09/l716.exe)
 Dipole        = 1.72167193D-02-3.05123831D-01-5.30037272D-01
 ***** Axes restored to original set *****
 -------------------------------------------------------------------
 Center     Atomic                   Forces (Hartrees/Bohr)
 Number     Number              X              Y              Z
 -------------------------------------------------------------------
      1       50           0.003367658   -0.004875814    0.002158890
      2       32           0.001061795   -0.001015557    0.005735712
      3       32           0.006951878    0.004999847   -0.003800570
      4       83          -0.001300023    0.000257771   -0.000146649
      5       32          -0.005753627   -0.004478989   -0.004602032
      6       83           0.000203691    0.001151965    0.000565664
      7       50          -0.003949314    0.003854133   -0.000926011
      8       83          -0.002065639   -0.000707629    0.000549576
      9       83           0.001483581    0.000814273    0.000465420
 -------------------------------------------------------------------
 Cartesian Forces:  Max     0.006951878 RMS     0.003219582
 Leave Link  716 at Tue Mar  6 16:41:53 2018, MaxMem=   536870912 cpu:         0.0
 (Enter /share/apps//mg09/l103.exe)

 GradGradGradGradGradGradGradGradGradGradGradGradGradGradGradGradGradGrad
 Berny optimization.
 Search for a local minimum.
 Step number   2 out of a maximum of  100
 All quantities printed in internal units (Hartrees-Bohrs-Radians)
 Update second derivatives using D2CorN and points    1    2
 DE= -5.83D-03 DEPred=-4.32D-03 R= 1.35D+00
 TightC=F SS=  1.41D+00  RLast= 2.27D-01 DXNew= 5.0454D-01 6.8248D-01
 Trust test= 1.35D+00 RLast= 2.27D-01 DXMaxT set to 5.05D-01
 ITU=  1  0
     Eigenvalues ---    0.06896   0.08534   0.09811   0.11395   0.11976
     Eigenvalues ---    0.12717   0.13456   0.13621   0.14573   0.15991
     Eigenvalues ---    0.16355   0.20938   0.21814   0.22285   0.23088
     Eigenvalues ---    0.24240   0.26002   0.26180   0.27305   0.27590
[...]
     X          X                                                                                                                    
     X          X                                                                                                                    
     X          X                                                                                                                    
     X                                                                                                                               
     X                                                                                                                               
     X                                                                                                                               
     X                                                                                                                               
     X                                                                                                                               
     X                                                                                                                               
     X                                                                                                                               
     X                                                                                                                               
     X                                                                                                                               
     X                                                                                                                               
     X                                                                                                                               
     X                                                                                                                               
 
 ***** Axes restored to original set *****
 -------------------------------------------------------------------
 Center     Atomic                   Forces (Hartrees/Bohr)
 Number     Number              X              Y              Z
 -------------------------------------------------------------------
      1       50           0.000038286   -0.000006383   -0.000048911
      2       32           0.000000143    0.000046247    0.000031923
      3       32          -0.000033487   -0.000014037   -0.000025165
      4       83           0.000075582    0.000005406    0.000009318
      5       32           0.000030851   -0.000054129   -0.000030326
      6       83          -0.000051509    0.000016727    0.000055418
      7       50           0.000012222   -0.000013100    0.000013508
      8       83          -0.000044387    0.000050669   -0.000005738
      9       83          -0.000027701   -0.000031401   -0.000000027
 -------------------------------------------------------------------
 Cartesian Forces:  Max     0.000075582 RMS     0.000034678
 Force constants in Cartesian coordinates: 
                1             2             3             4             5 
      1  0.615558D-01
      2 -0.124884D-01  0.723171D-01
      3 -0.945564D-03  0.133869D-02  0.362345D-01
      4 -0.564581D-03 -0.881681D-03  0.281675D-02  0.499129D-01
      5 -0.924567D-03  0.186309D-03 -0.429820D-02  0.119134D-01  0.395974D-01
      6 -0.856119D-03  0.128651D-02 -0.275816D-02  0.158752D-02 -0.232520D-02
      7  0.782951D-03  0.457174D-02 -0.116281D-02  0.141212D-02  0.920635D-03
      8  0.187256D-02 -0.333819D-01  0.131197D-01  0.165932D-02 -0.382606D-02
      9  0.426748D-02  0.113152D-01 -0.263193D-02  0.722460D-02  0.291468D-02
     10 -0.373340D-02 -0.316717D-03 -0.134842D-02 -0.190321D-01  0.434338D-02
     11  0.820152D-02 -0.735625D-03 -0.528344D-02  0.204563D-02  0.458302D-02
     12  0.751298D-03 -0.115785D-02 -0.126312D-02 -0.839727D-02  0.547879D-02
     13 -0.260394D-01  0.131595D-01 -0.114476D-01 -0.211709D-02  0.311016D-02
     14  0.159186D-01 -0.679328D-02  0.608307D-02  0.238608D-02 -0.384820D-03
     15 -0.119569D-01  0.418856D-03 -0.241149D-02 -0.558934D-02 -0.556523D-02
     16  0.171481D-02  0.591137D-02  0.531022D-02  0.320953D-02 -0.738540D-02
     17 -0.263120D-02 -0.613942D-02 -0.772916D-03 -0.510802D-02 -0.175363D-01
     18  0.759688D-03 -0.117582D-02 -0.131223D-02 -0.185333D-02  0.100167D-01
     19 -0.566500D-02 -0.228797D-02 -0.137160D-03 -0.869493D-04 -0.325142D-03
     20 -0.227893D-02 -0.371397D-02  0.263275D-03 -0.364971D-03  0.236895D-03
     21  0.354642D-03 -0.485684D-03 -0.303179D-02 -0.237197D-02  0.356236D-02
     22 -0.214418D-01 -0.645236D-03  0.164483D-01 -0.467740D-02 -0.103534D-01
     23 -0.297003D-03 -0.320435D-02  0.329152D-02 -0.115809D-01 -0.232694D-01
     24  0.179872D-01  0.352349D-02 -0.116119D-01 -0.893350D-02 -0.128335D-01
     25 -0.660933D-02 -0.702256D-02 -0.953376D-02 -0.280564D-01 -0.129906D-02
     26 -0.737252D-02 -0.185348D-01 -0.137417D-01 -0.688287D-04  0.412860D-03
     27 -0.103617D-01 -0.150634D-01 -0.112139D-01  0.155165D-01  0.304959D-02
                6             7             8             9            10 
      6  0.694555D-01
      7 -0.103578D-02  0.597032D-01
      8 -0.103587D-02 -0.795888D-02  0.537229D-01
      9 -0.568458D-02 -0.132399D-02 -0.184764D-01  0.505194D-01
     10 -0.910633D-02 -0.513844D-02  0.729850D-04  0.145782D-02  0.755848D-01
     11  0.310808D-02 -0.514550D-02 -0.124219D-02 -0.933613D-03 -0.147443D-01
     12 -0.110968D-01  0.672160D-02 -0.305196D-02 -0.492537D-02 -0.791559D-02
     13  0.129549D-02 -0.152515D-01 -0.110727D-01 -0.384594D-02 -0.275774D-02
     14  0.473418D-03 -0.109467D-01 -0.580487D-02 -0.117805D-02  0.532289D-03
     15 -0.559563D-02  0.281025D-02  0.320967D-02 -0.460884D-02  0.452341D-03
     16  0.626033D-03 -0.563263D-03  0.907831D-03  0.378353D-02 -0.210875D-01
     17  0.970889D-02 -0.389308D-03 -0.339679D-02 -0.216024D-02 -0.117519D-01
     18 -0.112410D-01  0.192919D-02 -0.116221D-02 -0.539419D-02  0.132540D-02
     19  0.871890D-03 -0.276862D-01  0.188757D-01 -0.252643D-02 -0.655266D-02
     20 -0.135643D-02  0.154820D-01 -0.778725D-02  0.336428D-02 -0.247955D-02
     21 -0.327699D-02 -0.146603D-03  0.170166D-03  0.381448D-04  0.107090D-01
     22 -0.676888D-02 -0.579723D-02 -0.390715D-02 -0.787933D-03 -0.118214D-01
     23 -0.114449D-01  0.140801D-02 -0.747864D-03  0.898314D-03  0.216824D-01
     24 -0.147073D-01  0.127075D-02  0.422414D-02 -0.410735D-02  0.222297D-02
     25  0.133862D-01 -0.746160D-02 -0.449666D-03 -0.824913D-02 -0.546152D-02
     26  0.158550D-02  0.205799D-02  0.246400D-02  0.425577D-02  0.266140D-02
     27 -0.150950D-01 -0.906261D-02  0.300272D-02 -0.232053D-01  0.220280D-02
               11            12            13            14            15 
     11  0.649169D-01
     12 -0.123304D-01  0.432718D-01
     13  0.179757D-02  0.269181D-03  0.493159D-01
     14 -0.124631D-02 -0.227502D-02 -0.324501D-02  0.643360D-01
     15 -0.437665D-02 -0.534810D-02  0.175385D-01 -0.615572D-02  0.502625D-01
     16 -0.990527D-02 -0.129094D-02 -0.368074D-02 -0.584393D-02  0.319594D-03
     17 -0.117953D-01 -0.494511D-03 -0.563759D-03 -0.274876D-02 -0.171797D-02
     18  0.121243D-02  0.306843D-02  0.146773D-03 -0.733288D-02 -0.485429D-02
     19 -0.174562D-02  0.106022D-01  0.153069D-02  0.292870D-02 -0.213362D-02
     20 -0.625507D-02  0.125837D-01  0.637439D-02 -0.368942D-01  0.384370D-02
     21  0.130715D-01 -0.255114D-01 -0.171642D-03  0.450969D-03  0.261632D-04
     22  0.216415D-01  0.214178D-02  0.149842D-02 -0.169677D-02 -0.909904D-03
     23 -0.456139D-01  0.108627D-02 -0.419341D-02 -0.636629D-02  0.919820D-02
     24  0.463159D-02 -0.798164D-03  0.568779D-03  0.943501D-02 -0.234044D-01
     25 -0.214545D-02 -0.288222D-02 -0.249849D-02 -0.332662D-04 -0.530882D-03
     26 -0.261151D-02  0.161017D-03 -0.536669D-02 -0.409754D-02  0.114515D-02
     27  0.900471D-03  0.260276D-02 -0.435358D-02  0.499188D-03 -0.406588D-02
               16            17            18            19            20 
     16  0.561407D-01
     17 -0.609250D-02  0.845841D-01
     18  0.143152D-01  0.217672D-02  0.428911D-01
     19 -0.818664D-02 -0.210496D-02 -0.158961D-01  0.478174D-01
     20 -0.137781D-02 -0.505607D-02 -0.492123D-02 -0.159260D-01  0.610970D-01
     21 -0.163942D-01 -0.481883D-02 -0.250312D-01  0.102610D-01 -0.153255D-01
     22 -0.286535D-02  0.153933D-02  0.103472D-02  0.215643D-02  0.182202D-02
     23 -0.324179D-02 -0.519656D-02  0.280965D-02 -0.359940D-02 -0.356016D-02
     24 -0.160593D-02 -0.162566D-02  0.259313D-02  0.224214D-03  0.126645D-02
     25 -0.246816D-01  0.271023D-01 -0.176159D-02 -0.332713D-02 -0.125116D-02
     26  0.270275D-01 -0.327149D-01 -0.162338D-02  0.418462D-02  0.193277D-02
     27 -0.506356D-02 -0.295475D-03 -0.719753D-03 -0.126603D-02  0.281802D-03
               21            22            23            24            25 
     21  0.594713D-01
     22 -0.230759D-02  0.474415D-01
     23  0.950200D-03 -0.120118D-02  0.898405D-01
     24 -0.133910D-02 -0.117404D-01 -0.557565D-02  0.543926D-01
     25  0.672735D-04 -0.449314D-02  0.102322D-02  0.594222D-05  0.825892D-01
     26  0.242479D-02 -0.719910D-02 -0.188207D-02 -0.304585D-02 -0.159244D-01
     27 -0.134507D-02  0.288991D-02 -0.121359D-02 -0.101753D-02  0.949820D-02
               26            27 
     26  0.550312D-01
     27  0.883874D-02  0.540597D-01
 Leave Link  716 at Wed Mar  7 01:37:13 2018, MaxMem=   536870912 cpu:         0.1
 (Enter /share/apps//mg09/l103.exe)

 GradGradGradGradGradGradGradGradGradGradGradGradGradGradGradGradGradGrad
 Berny optimization.
 Search for a local minimum.
 Step number   1 out of a maximum of    2
 All quantities printed in internal units (Hartrees-Bohrs-Radians)
 Second derivative matrix not updated -- analytic derivatives used.
 ITU=  0
     Eigenvalues ---    0.00594   0.00984   0.02938   0.03762   0.03832
     Eigenvalues ---    0.04984   0.05114   0.05706   0.05845   0.06226
     Eigenvalues ---    0.06849   0.07142   0.07595   0.08427   0.09237
     Eigenvalues ---    0.10353   0.11726   0.12043   0.13713   0.15058
     Eigenvalues ---    0.15206
 Angle between quadratic step and forces=  24.83 degrees.
 Linear search not attempted -- first point.
 TrRot=  0.000006 -0.000022 -0.000016 -0.000002 -0.000001 -0.000002
 Variable       Old X    -DE/DX   Delta X   Delta X   Delta X     New X
                                 (Linear)    (Quad)   (Total)
    X1       -2.70392   0.00004   0.00000   0.00084   0.00086  -2.70306
    Y1        4.14028  -0.00001   0.00000  -0.00024  -0.00026   4.14002
    Z1        2.10696  -0.00005   0.00000  -0.00072  -0.00074   2.10622
    X2       -0.22043   0.00000   0.00000   0.00025   0.00026  -0.22017
    Y2        0.29301   0.00005   0.00000   0.00050   0.00048   0.29349
    Z2       -4.36046   0.00003   0.00000   0.00074   0.00073  -4.35973
    X3       -2.54998  -0.00003   0.00000  -0.00060  -0.00060  -2.55057
    Y3       -0.81223  -0.00001   0.00000  -0.00048  -0.00050  -0.81273
    Z3        3.78562  -0.00003   0.00000  -0.00074  -0.00076   3.78486
    X4        4.10103   0.00008   0.00000   0.00075   0.00075   4.10177
    Y4       -0.83256   0.00001   0.00000   0.00074   0.00070  -0.83186
    Z4       -1.02311   0.00001   0.00000   0.00066   0.00065  -1.02246
    X5        1.80687   0.00003   0.00000   0.00079   0.00080   1.80767
    Y5        2.06184  -0.00005   0.00000  -0.00115  -0.00118   2.06066
    Z5        3.75004  -0.00003   0.00000  -0.00084  -0.00085   3.74919
    X6       -0.84997  -0.00005   0.00000  -0.00078  -0.00079  -0.85076
    Y6       -4.09738   0.00002   0.00000   0.00050   0.00048  -4.09690
    Z6       -0.98313   0.00006   0.00000   0.00139   0.00137  -0.98176
    X7        2.14691   0.00001   0.00000   0.00031   0.00030   2.14721
    Y7       -3.19546  -0.00001   0.00000  -0.00038  -0.00041  -3.19587
    Z7        3.79711   0.00001   0.00000   0.00043   0.00042   3.79753
    X8        1.84216  -0.00004   0.00000  -0.00075  -0.00073   1.84143
    Y8        4.24724   0.00005   0.00000   0.00099   0.00096   4.24820
    Z8       -1.33392  -0.00001   0.00000  -0.00056  -0.00058  -1.33450
    X9       -4.63156  -0.00003   0.00000  -0.00086  -0.00085  -4.63241
    Y9       -0.01948  -0.00003   0.00000  -0.00027  -0.00027  -0.01975
    Z9       -1.28121   0.00000   0.00000  -0.00021  -0.00023  -1.28144
         Item               Value     Threshold  Converged?
 Maximum Force            0.000076     0.000450     YES
 RMS     Force            0.000035     0.000300     YES
 Maximum Displacement     0.001371     0.001800     YES
 RMS     Displacement     0.000705     0.001200     YES
 Predicted change in Energy=-2.995129D-07
 Optimization completed.
    -- Stationary point found.
 GradGradGradGradGradGradGradGradGradGradGradGradGradGradGradGradGradGrad

 Leave Link  103 at Wed Mar  7 01:37:14 2018, MaxMem=   536870912 cpu:         0.1
 (Enter /share/apps//mg09/l9999.exe)
 1\1\GINC-COMPUTE-0-6\Freq\RPBE1PBE\def2TZVP\Bi4Ge3Sn2\RODRIGO\07-Mar-2
 018\0\\#P Geom=AllCheck Guess=TCheck SCRF=Check GenChk RPBE1PBE/def2TZ
 VP Freq\\01Final_coords.xyz_53\\0,1\Sn,-1.4308511157,2.1909404876,1.11
 4955806\Ge,-0.1166447459,0.1550560129,-2.3074554308\Ge,-1.3493886706,-
 0.4298154628,2.0032662929\Bi,2.1701692206,-0.4405744081,-0.5414052542\
 Ge,0.9561539197,1.0910781917,1.9844368753\Bi,-0.4497843907,-2.16823928
 85,-0.5202496213\Sn,1.1360936489,-1.6909646198,2.0093445373\Bi,0.97482
 92407,2.2475452511,-0.7058790268\Bi,-2.4509171067,-0.0103091639,-0.677
 9871786\\Version=ES64L-G09RevD.01\State=1-A\HF=-7517.8137324\RMSD=9.33
 8e-09\RMSF=3.468e-05\ZeroPoint=0.0057793\Thermal=0.0232867\Dipole=0.19
 42713,-0.2999019,-0.4141451\DipoleDeriv=0.0320404,-0.1635562,-0.078398
 5,-0.1635289,0.1742609,0.1206279,-0.0698464,0.1077455,0.0860366,-0.113
 7211,-0.0409296,-0.0304881,-0.0406602,-0.0783686,0.0490269,-0.0046086,
 0.0101013,0.0990641,-0.1234923,0.0602373,-0.1029282,0.0732159,-0.03493
 66,0.0041254,-0.0216402,0.08762,-0.0347271,0.0480805,0.0509235,-0.0326
 518,0.060115,0.0541423,0.0441965,0.0306232,0.0223745,-0.0259705,-0.000
 5002,0.021459,0.0363328,0.0078576,-0.1566897,0.0969954,-0.0723994,0.05
 52956,-0.0353184,0.092483,0.0401894,-0.0294097,0.0317105,0.0091116,0.0
 467845,-0.0342591,-0.0199379,-0.025477,0.0593417,-0.1408344,0.1578445,
 -0.1408309,0.1758941,-0.2365003,0.1485729,-0.2225867,0.1954036,-0.0227
 673,0.132628,-0.0279355,0.0607797,-0.0467447,-0.1072202,0.0166892,-0.0
 175279,-0.1289819,0.0285354,0.039883,0.1076346,0.1113414,-0.0966693,-0
 .018036,0.0068685,-0.0230844,-0.1300293\Polar=378.610558,-13.8703479,3
 90.430428,3.55012,-5.4050275,365.9915586\PG=C01 [X(Bi4Ge3Sn2)]\NImag=0
 \\0.06155579,-0.01248841,0.07231707,-0.00094556,0.00133869,0.03623451,
 -0.00056458,-0.00088168,0.00281675,0.04991288,-0.00092457,0.00018631,-
 0.00429820,0.01191337,0.03959741,-0.00085612,0.00128651,-0.00275816,0.
 00158752,-0.00232520,0.06945547,0.00078295,0.00457174,-0.00116281,0.00
 141212,0.00092064,-0.00103578,0.05970315,0.00187256,-0.03338189,0.0131
 1972,0.00165932,-0.00382606,-0.00103587,-0.00795888,0.05372291,0.00426
 748,0.01131524,-0.00263193,0.00722460,0.00291468,-0.00568458,-0.001323
 99,-0.01847638,0.05051942,-0.00373340,-0.00031672,-0.00134842,-0.01903
 212,0.00434338,-0.00910633,-0.00513844,0.00007298,0.00145782,0.0755847
 6,0.00820152,-0.00073562,-0.00528344,0.00204563,0.00458302,0.00310808,
 -0.00514550,-0.00124219,-0.00093361,-0.01474434,0.06491689,0.00075130,
 -0.00115785,-0.00126312,-0.00839727,0.00547879,-0.01109676,0.00672160,
 -0.00305196,-0.00492537,-0.00791559,-0.01233039,0.04327175,-0.02603941
 ,0.01315947,-0.01144755,-0.00211709,0.00311016,0.00129549,-0.01525154,
 -0.01107273,-0.00384594,-0.00275774,0.00179757,0.00026918,0.04931590,0
 .01591856,-0.00679328,0.00608307,0.00238608,-0.00038482,0.00047342,-0.
 01094665,-0.00580487,-0.00117805,0.00053229,-0.00124631,-0.00227502,-0
 .00324501,0.06433604,-0.01195693,0.00041886,-0.00241149,-0.00558934,-0
 .00556523,-0.00559563,0.00281025,0.00320967,-0.00460884,0.00045234,-0.
 00437665,-0.00534810,0.01753849,-0.00615572,0.05026246,0.00171481,0.00
 591137,0.00531022,0.00320953,-0.00738540,0.00062603,-0.00056326,0.0009
 0783,0.00378353,-0.02108751,-0.00990527,-0.00129094,-0.00368074,-0.005
 84393,0.00031959,0.05614075,-0.00263120,-0.00613942,-0.00077292,-0.005
 10802,-0.01753626,0.00970889,-0.00038931,-0.00339679,-0.00216024,-0.01
 175190,-0.01179534,-0.00049451,-0.00056376,-0.00274876,-0.00171797,-0.
 00609250,0.08458411,0.00075969,-0.00117582,-0.00131223,-0.00185333,0.0
 1001672,-0.01124104,0.00192919,-0.00116221,-0.00539419,0.00132540,0.00
 121243,0.00306843,0.00014677,-0.00733288,-0.00485429,0.01431521,0.0021
 7672,0.04289113,-0.00566500,-0.00228797,-0.00013716,-0.00008695,-0.000
 32514,0.00087189,-0.02768615,0.01887573,-0.00252643,-0.00655266,-0.001
 74562,0.01060216,0.00153069,0.00292870,-0.00213362,-0.00818664,-0.0021
 0496,-0.01589606,0.04781740,-0.00227893,-0.00371397,0.00026328,-0.0003
 6497,0.00023689,-0.00135643,0.01548197,-0.00778725,0.00336428,-0.00247
 955,-0.00625507,0.01258366,0.00637439,-0.03689417,0.00384370,-0.001377
 81,-0.00505607,-0.00492123,-0.01592596,0.06109702,0.00035464,-0.000485
 68,-0.00303179,-0.00237197,0.00356236,-0.00327699,-0.00014660,0.000170
 17,0.00003814,0.01070900,0.01307153,-0.02551143,-0.00017164,0.00045097
 ,0.00002616,-0.01639415,-0.00481883,-0.02503119,0.01026104,-0.01532550
 ,0.05947126,-0.02144183,-0.00064524,0.01644829,-0.00467740,-0.01035337
 ,-0.00676888,-0.00579723,-0.00390715,-0.00078793,-0.01182137,0.0216414
 6,0.00214178,0.00149842,-0.00169677,-0.00090990,-0.00286535,0.00153933
 ,0.00103472,0.00215643,0.00182202,-0.00230759,0.04744146,-0.00029700,-
 0.00320435,0.00329152,-0.01158089,-0.02326936,-0.01144491,0.00140801,-
 0.00074786,0.00089831,0.02168245,-0.04561387,0.00108627,-0.00419341,-0
 .00636629,0.00919820,-0.00324179,-0.00519656,0.00280965,-0.00359940,-0
 .00356016,0.00095020,-0.00120118,0.08984053,0.01798717,0.00352349,-0.0
 1161185,-0.00893350,-0.01283352,-0.01470735,0.00127075,0.00422414,-0.0
 0410735,0.00222297,0.00463159,-0.00079816,0.00056878,0.00943501,-0.023
 40439,-0.00160593,-0.00162566,0.00259313,0.00022421,0.00126645,-0.0013
 3910,-0.01174039,-0.00557565,0.05439260,-0.00660933,-0.00702256,-0.009
 53376,-0.02805639,-0.00129906,0.01338617,-0.00746160,-0.00044967,-0.00
 824913,-0.00546152,-0.00214545,-0.00288222,-0.00249849,-0.00003327,-0.
 00053088,-0.02468160,0.02710232,-0.00176159,-0.00332713,-0.00125116,0.
 00006727,-0.00449314,0.00102322,0.00000594,0.08258919,-0.00737252,-0.0
 1853484,-0.01374173,-0.00006883,0.00041286,0.00158550,0.00205799,0.002
 46400,0.00425577,0.00266140,-0.00261151,0.00016102,-0.00536669,-0.0040
 9754,0.00114515,0.02702751,-0.03271491,-0.00162338,0.00418462,0.001932
 77,0.00242479,-0.00719910,-0.00188207,-0.00304585,-0.01592437,0.055031
 24,-0.01036166,-0.01506344,-0.01121393,0.01551654,0.00304959,-0.015094
 95,-0.00906261,0.00300272,-0.02320531,0.00220280,0.00090047,0.00260276
 ,-0.00435358,0.00049919,-0.00406588,-0.00506356,-0.00029548,-0.0007197
 5,-0.00126603,0.00028180,-0.00134507,0.00288991,-0.00121359,-0.0010175
 3,0.00949820,0.00883874,0.05405966\\-0.00003829,0.00000638,0.00004891,
 -0.00000014,-0.00004625,-0.00003192,0.00003349,0.00001404,0.00002517,-
 0.00007558,-0.00000541,-0.00000932,-0.00003085,0.00005413,0.00003033,0
 .00005151,-0.00001673,-0.00005542,-0.00001222,0.00001310,-0.00001351,0
 .00004439,-0.00005067,0.00000574,0.00002770,0.00003140,0.00000003\\\@


 STEINBACH'S GUIDELINES FOR SYSTEMS PROGRAMMING:
 NEVER TEST FOR AN ERROR CONDITION YOU DON'T KNOW HOW
 TO HANDLE.
 Job cpu time:       0 days  4 hours 37 minutes 37.3 seconds.
 File lengths (MBytes):  RWF=    299 Int=      0 D2E=      0 Chk=     16 Scr=      1
 Normal termination of Gaussian 09 at Wed Mar  7 01:37:16 2018.
