 Entering Gaussian System, Link 0=/share/apps/mg09/g09
 Initial command:
 /share/apps//mg09/l1.exe "/state/partition1/gauss_tmp/Gau-8180.inp" -scrdir="/state/partition1/gauss_tmp/"
 Entering Link 1 = /share/apps//mg09/l1.exe PID=      8186.
  
 Copyright (c) 1988,1990,1992,1993,1995,1998,2003,2009,2013,
            Gaussian, Inc.  All Rights Reserved.
  
 This is part of the Gaussian(R) 09 program.  It is based on
 the Gaussian(R) 03 system (copyright 2003, Gaussian, Inc.),
 the Gaussian(R) 98 system (copyright 1998, Gaussian, Inc.),
 the Gaussian(R) 94 system (copyright 1995, Gaussian, Inc.),
 the Gaussian 92(TM) system (copyright 1992, Gaussian, Inc.),
 the Gaussian 90(TM) system (copyright 1990, Gaussian, Inc.),
 the Gaussian 88(TM) system (copyright 1988, Gaussian, Inc.),
 the Gaussian 86(TM) system (copyright 1986, Carnegie Mellon
 University), and the Gaussian 82(TM) system (copyright 1983,
 Carnegie Mellon University). Gaussian is a federally registered
 trademark of Gaussian, Inc.
  
 This software contains proprietary and confidential information,
 including trade secrets, belonging to Gaussian, Inc.
  
 This software is provided under written license and may be
 used, copied, transmitted, or stored only in accord with that
 written license.
  
 The following legend is applicable only to US Government
 contracts under FAR:
  
                    RESTRICTED RIGHTS LEGEND
  
 Use, reproduction and disclosure by the US Government is
 subject to restrictions as set forth in subparagraphs (a)
 and (c) of the Commercial Computer Software - Restricted
 Rights clause in FAR 52.227-19.
  
 Gaussian, Inc.
 340 Quinnipiac St., Bldg. 40, Wallingford CT 06492
  
  
 ---------------------------------------------------------------
 Warning -- This program may not be used in any manner that
 competes with the business of Gaussian, Inc. or will provide
 assistance to any competitor of Gaussian, Inc.  The licensee
 of this program is prohibited from giving any competitor of
 Gaussian, Inc. access to this program.  By using this program,
 the user acknowledges that Gaussian, Inc. is engaged in the
 business of creating and licensing software in the field of
 computational chemistry and represents and warrants to the
 licensee that it is not a competitor of Gaussian, Inc. and that
 it will not use this program in any manner prohibited above.
 ---------------------------------------------------------------
  

 Cite this work as:
 Gaussian 09, Revision D.01,
 M. J. Frisch, G. W. Trucks, H. B. Schlegel, G. E. Scuseria, 
 M. A. Robb, J. R. Cheeseman, G. Scalmani, V. Barone, B. Mennucci, 
 G. A. Petersson, H. Nakatsuji, M. Caricato, X. Li, H. P. Hratchian, 
 A. F. Izmaylov, J. Bloino, G. Zheng, J. L. Sonnenberg, M. Hada, 
 M. Ehara, K. Toyota, R. Fukuda, J. Hasegawa, M. Ishida, T. Nakajima, 
 Y. Honda, O. Kitao, H. Nakai, T. Vreven, J. A. Montgomery, Jr., 
 J. E. Peralta, F. Ogliaro, M. Bearpark, J. J. Heyd, E. Brothers, 
 K. N. Kudin, V. N. Staroverov, T. Keith, R. Kobayashi, J. Normand, 
 K. Raghavachari, A. Rendell, J. C. Burant, S. S. Iyengar, J. Tomasi, 
 M. Cossi, N. Rega, J. M. Millam, M. Klene, J. E. Knox, J. B. Cross, 
 V. Bakken, C. Adamo, J. Jaramillo, R. Gomperts, R. E. Stratmann, 
 O. Yazyev, A. J. Austin, R. Cammi, C. Pomelli, J. W. Ochterski, 
 R. L. Martin, K. Morokuma, V. G. Zakrzewski, G. A. Voth, 
 P. Salvador, J. J. Dannenberg, S. Dapprich, A. D. Daniels, 
 O. Farkas, J. B. Foresman, J. V. Ortiz, J. Cioslowski, 
 and D. J. Fox, Gaussian, Inc., Wallingford CT, 2013.
 
 ******************************************
 Gaussian 09:  ES64L-G09RevD.01 24-Apr-2013
                 6-Mar-2018 
 ******************************************
 %NProcShared=4
 Will use up to    4 processors via shared memory.
 %LindaWorkers=compute-0-6
 %chk=Isomer_01.chk
 %NProc=4
 Will use up to    4 processors via shared memory.
 %mem=4GB
 SetLPE:  input flags=" -vv -opt "Tsnet.Node.lindarsharg: ssh" "
 SetLPE:    new flags=" -vv -opt "Tsnet.Node.lindarsharg: ssh"  -nodelist 'compute-0-6.local'"
 Will use up to    1 processors via Linda.
 ----------------------------------------------------------------------
 #p PBE1PBE/Def2TZVP scf=(maxcycle=768) opt=(cartesian,maxcycle=512) fr
 eq
 ----------------------------------------------------------------------
 1/6=512,10=7,14=-1,18=10,26=3,38=1/1,3;
 2/12=2,17=6,18=5,29=2,40=1/2;
 3/5=44,7=101,11=2,16=1,25=1,30=1,71=1,74=-13/1,2,3;
 4//1;
 5/5=2,7=768,38=5/2;
 6/7=2,8=2,9=2,10=2,28=1/1;
 7/7=1,29=1/1,2,3,16;
 1/6=512,10=7,14=-1,18=10,26=3/3(2);
 2/29=1/2;
 99/12=1/99;
 2/29=1/2;
 3/5=44,7=101,11=2,16=1,25=1,30=1,71=1,74=-13/1,2,3;
 4/5=5,16=3,69=1/1;
 5/5=2,7=768,38=5/2;
 7/7=1/1,2,3,16;
 1/6=512,14=-1,18=10,26=3/3(-5);
 2/29=1/2;
 6/7=2,8=2,9=2,10=2,19=2,28=1/1;
 99/9=1,12=1/99;
 Leave Link    1 at Tue Mar  6 11:56:28 2018, MaxMem=   536870912 cpu:         0.3
 (Enter /share/apps//mg09/l101.exe)
 ---------------------
 01Final_coords.xyz_01
 ---------------------
 Symbolic Z-matrix:
 Charge =  0 Multiplicity = 1
 32                    0.12335   1.78659   1.6852 
 83                   -1.9031   -0.32358   1.44696 
 50                    0.88734  -1.57903   1.71194 
 83                   -1.66512   1.93248  -0.58269 
 83                   -0.8692   -2.18928  -0.73891 
 32                   -0.66983   0.07843  -2.59437 
 32                    1.08455   1.90486  -1.4277 
 50                    1.83986  -1.06571  -1.6316 
 83                    2.58708   0.72016   0.72721 
 
 NAtoms=      9 NQM=        9 NQMF=       0 NMMI=      0 NMMIF=      0
                NMic=       0 NMicF=      0.
                    Isotopes and Nuclear Properties:
 (Nuclear quadrupole moments (NQMom) in fm**2, nuclear magnetic moments (NMagM)
  in nuclear magnetons)

  Atom         1           2           3           4           5           6           7           8           9
 IAtWgt=          74         209         118         209         209          74          74         118         209
 AtmWgt=  73.9211788 208.9804000 117.9018000 208.9804000 208.9804000  73.9211788  73.9211788 117.9018000 208.9804000
 NucSpn=           0           9           0           9           9           0           0           0           9
 AtZEff=   0.0000000   0.0000000   0.0000000   0.0000000   0.0000000   0.0000000   0.0000000   0.0000000   0.0000000
 NQMom=    0.0000000 -51.6000000   0.0000000 -51.6000000 -51.6000000   0.0000000   0.0000000   0.0000000 -51.6000000
 NMagM=    0.0000000   4.1106000   0.0000000   4.1106000   4.1106000   0.0000000   0.0000000   0.0000000   4.1106000
 AtZNuc=  32.0000000  83.0000000  50.0000000  83.0000000  83.0000000  32.0000000  32.0000000  50.0000000  83.0000000
 Leave Link  101 at Tue Mar  6 11:56:30 2018, MaxMem=   536870912 cpu:         0.3
 (Enter /share/apps//mg09/l103.exe)

 GradGradGradGradGradGradGradGradGradGradGradGradGradGradGradGradGradGrad
 Berny optimization.
 Initialization pass.
 No Z-matrix variables, so optimization will use Cartesian coordinates.
 Trust Radius=3.00D-01 FncErr=1.00D-07 GrdErr=1.00D-06
 Number of steps in this run=    100 maximum allowed number of steps=    100.
 GradGradGradGradGradGradGradGradGradGradGradGradGradGradGradGradGradGrad

 Leave Link  103 at Tue Mar  6 11:56:35 2018, MaxMem=   536870912 cpu:         0.1
 (Enter /share/apps//mg09/l202.exe)
 ---------------------------------------------------------------------------------------------------
                            Z-MATRIX (ANGSTROMS AND DEGREES)
   CD    Cent   Atom    N1       Length/X        N2       Alpha/Y        N3        Beta/Z          J
 ---------------------------------------------------------------------------------------------------
      1      1  Ge       0   0.123346          1.786586          1.685195
      2      2  Bi       0  -1.903098         -0.323583          1.446960
      3      3  Sn       0   0.887338         -1.579032          1.711935
      4      4  Bi       0  -1.665117          1.932479         -0.582686
      5      5  Bi       0  -0.869198         -2.189284         -0.738912
      6      6  Ge       0  -0.669831          0.078433         -2.594366
      7      7  Ge       0   1.084548          1.904861         -1.427703
      8      8  Sn       0   1.839860         -1.065709         -1.631599
      9      9  Bi       0   2.587077          0.720158          0.727206
 ---------------------------------------------------------------------------------------------------
                         Z-Matrix orientation:                         
 ---------------------------------------------------------------------
 Center     Atomic      Atomic             Coordinates (Angstroms)
 Number     Number       Type             X           Y           Z
 ---------------------------------------------------------------------
      1         32           0        0.123346    1.786586    1.685195
      2         83           0       -1.903098   -0.323583    1.446960
      3         50           0        0.887338   -1.579032    1.711935
      4         83           0       -1.665117    1.932479   -0.582686
      5         83           0       -0.869198   -2.189284   -0.738912
      6         32           0       -0.669831    0.078433   -2.594366
      7         32           0        1.084548    1.904861   -1.427703
      8         50           0        1.839860   -1.065709   -1.631599
      9         83           0        2.587077    0.720158    0.727206
 ---------------------------------------------------------------------
                    Distance matrix (angstroms):
                    1          2          3          4          5
     1  Ge   0.000000
     2  Bi   2.935310   0.000000
     3  Sn   3.451345   3.071302   0.000000
     4  Bi   2.891914   3.043996   4.910298   0.000000
     5  Bi   4.761195   3.054149   3.076439   4.200812   0.000000
     6  Ge   4.675635   4.244394   4.869927   2.911175   2.936835
     7  Ge   3.260066   4.706982   4.694010   2.876712   4.588418
     8  Sn   4.699269   4.902857   3.514259   4.730139   3.065666
     9  Bi   2.850435   4.665738   3.024083   4.611582   4.749757
                    6          7          8          9
     6  Ge   0.000000
     7  Ge   2.788331   0.000000
     8  Sn   2.921392   3.071865   0.000000
     9  Bi   4.695966   2.881796   3.051494   0.000000
 Stoichiometry    Bi4Ge3Sn2
 Framework group  C1[X(Bi4Ge3Sn2)]
 Deg. of freedom    21
 Full point group                 C1      NOp   1
 Largest Abelian subgroup         C1      NOp   1
 Largest concise Abelian subgroup C1      NOp   1
                         Standard orientation:                         
 ---------------------------------------------------------------------
 Center     Atomic      Atomic             Coordinates (Angstroms)
 Number     Number       Type             X           Y           Z
 ---------------------------------------------------------------------
      1         32           0        0.123346   -1.786586   -1.685195
      2         83           0       -1.903098    0.323583   -1.446960
      3         50           0        0.887338    1.579032   -1.711935
      4         83           0       -1.665117   -1.932479    0.582686
      5         83           0       -0.869198    2.189284    0.738912
      6         32           0       -0.669831   -0.078433    2.594366
      7         32           0        1.084548   -1.904861    1.427703
      8         50           0        1.839860    1.065709    1.631599
      9         83           0        2.587077   -0.720158   -0.727206
 ---------------------------------------------------------------------
 Rotational constants (GHZ):      0.0991907      0.0877974      0.0795804
 Leave Link  202 at Tue Mar  6 11:56:35 2018, MaxMem=   536870912 cpu:         0.0
 (Enter /share/apps//mg09/l301.exe)
 Standard basis: def2TZVP (5D, 7F)
 Ernie: Thresh=  0.10000D-02 Tol=  0.10000D-05 Strict=F.
 There are   519 symmetry adapted cartesian basis functions of A   symmetry.
 There are   444 symmetry adapted basis functions of A   symmetry.
   444 basis functions,   963 primitive gaussians,   519 cartesian basis functions
   116 alpha electrons      116 beta electrons
       nuclear repulsion energy      3539.7781880375 Hartrees.
 IExCor= 1009 DFT=T Ex+Corr=PBE1PBE ExCW=0 ScaHFX=  0.250000
 ScaDFX=  0.750000  0.750000  1.000000  1.000000 ScalE2=  1.000000  1.000000
 IRadAn=      0 IRanWt=     -1 IRanGd=            0 ICorTp=0 IEmpDi=  4
 NAtoms=    9 NActive=    9 NUniq=    9 SFac= 1.00D+00 NAtFMM=   60 NAOKFM=F Big=F
 Integral buffers will be    131072 words long.
 Raffenetti 2 integral format.
 Two-electron integral symmetry is turned on.
 Leave Link  301 at Tue Mar  6 11:56:39 2018, MaxMem=   536870912 cpu:         0.2
 (Enter /share/apps//mg09/l302.exe)
 NPDir=0 NMtPBC=     1 NCelOv=     1 NCel=       1 NClECP=     1 NCelD=      1
         NCelK=      1 NCelE2=     1 NClLst=     1 CellRange=     0.0.
 One-electron integrals computed using PRISM.
   1 Symmetry operations used in ECPInt.
 ECPInt:  NShTT=   10440 NPrTT=   41973 LenC2=    9670 LenP2D=   27412.
 LDataN:  DoStor=T MaxTD1= 8 Len=  415
 NBasis=   444 RedAO= T EigKep=  1.43D-03  NBF=   444
 NBsUse=   444 1.00D-06 EigRej= -1.00D+00 NBFU=   444
 Precomputing XC quadrature grid using
 IXCGrd= 4 IRadAn=           0 IRanWt=          -1 IRanGd=           0 AccXCQ= 0.00D+00.
 Defaulting to unpruned grid for atomic number  83.
 Defaulting to unpruned grid for atomic number  83.
 Defaulting to unpruned grid for atomic number  50.
 Generated NRdTot=       0 NPtTot=           0 NUsed=           0 NTot=          32
 NSgBfM=   501   501   501   501   501 MxSgAt=     9 MxSgA2=     9.
 Leave Link  302 at Tue Mar  6 11:56:52 2018, MaxMem=   536870912 cpu:        32.9
 (Enter /share/apps//mg09/l303.exe)
 DipDrv:  MaxL=1.
 Leave Link  303 at Tue Mar  6 11:57:00 2018, MaxMem=   536870912 cpu:         0.2
 (Enter /share/apps//mg09/l401.exe)
 ExpMin= 4.62D-02 ExpMax= 4.66D+05 ExpMxC= 4.50D+03 IAcc=2 IRadAn=         4 AccDes= 0.00D+00
 Harris functional with IExCor= 1009 and IRadAn=       4 diagonalized for initial guess.
 HarFok:  IExCor= 1009 AccDes= 0.00D+00 IRadAn=         4 IDoV= 1 UseB2=F ITyADJ=14
 ICtDFT=  3500011 ScaDFX=  1.000000  1.000000  1.000000  1.000000
 Defaulting to unpruned grid for atomic number  83.
 Defaulting to unpruned grid for atomic number  83.
 Defaulting to unpruned grid for atomic number  83.
 Defaulting to unpruned grid for atomic number  83.
 FoFCou: FMM=F IPFlag=           0 FMFlag=      100000 FMFlg1=           0
         NFxFlg=           0 DoJE=T BraDBF=F KetDBF=T FulRan=T
         wScrn=  0.000000 ICntrl=     500 IOpCl=  0 I1Cent=   200000004 NGrid=           0
         NMat0=    1 NMatS0=      1 NMatT0=    0 NMatD0=    1 NMtDS0=    0 NMtDT0=    0
 Petite list used in FoFCou.
 Harris En= -7518.60449929654    
 JPrj=0 DoOrth=F DoCkMO=F.
 Leave Link  401 at Tue Mar  6 11:57:13 2018, MaxMem=   536870912 cpu:        11.8
 (Enter /share/apps//mg09/l502.exe)
 Closed shell SCF:
 Using DIIS extrapolation, IDIIS=  1040.
 Integral symmetry usage will be decided dynamically.
 IVT=     1410107 IEndB=     1410107 NGot=   536870912 MDV=   536322046
 LenX=   536322046 LenY=   536052166
 Requested convergence on RMS density matrix=1.00D-08 within 768 cycles.
 Requested convergence on MAX density matrix=1.00D-06.
 Requested convergence on             energy=1.00D-06.
 No special actions if energy rises.
 Fock matrices will be formed incrementally for  20 cycles.

 Cycle   1  Pass 1  IDiag  1:
 FoFJK:  IHMeth= 1 ICntrl=       0 DoSepK=F KAlg= 0 I1Cent=   0 FoldK=F
 IRaf= 880000000 NMat=   1 IRICut=       1 DoRegI=T DoRafI=F ISym2E= 0.
 FoFCou: FMM=F IPFlag=           0 FMFlag=      100000 FMFlg1=           0
         NFxFlg=           0 DoJE=F BraDBF=F KetDBF=F FulRan=T
         wScrn=  0.000000 ICntrl=       0 IOpCl=  0 I1Cent=           0 NGrid=           0
         NMat0=    1 NMatS0=      1 NMatT0=    0 NMatD0=    1 NMtDS0=    0 NMtDT0=    0
 Symmetry not used in FoFCou.
 Defaulting to unpruned grid for atomic number  83.
 Defaulting to unpruned grid for atomic number  83.
 Defaulting to unpruned grid for atomic number  83.
 Defaulting to unpruned grid for atomic number  83.
 E= -7517.27430963228    
 DIIS: error= 2.59D-02 at cycle   1 NSaved=   1.
 NSaved= 1 IEnMin= 1 EnMin= -7517.27430963228     IErMin= 1 ErrMin= 2.59D-02
 ErrMax= 2.59D-02  0.00D+00 EMaxC= 1.00D-01 BMatC= 1.45D+00 BMatP= 1.45D+00
 IDIUse=3 WtCom= 7.41D-01 WtEn= 2.59D-01
 Coeff-Com:  0.100D+01
 Coeff-En:   0.100D+01
 Coeff:      0.100D+01
 Gap=     0.131 Goal=   None    Shift=    0.000
 GapD=    0.131 DampG=1.000 DampE=0.500 DampFc=0.5000 IDamp=-1.
 Damping current iteration by 5.00D-01
 RMSDP=4.69D-03 MaxDP=2.00D-01              OVMax= 4.45D-01

 Cycle   2  Pass 1  IDiag  1:
 RMSU=  2.34D-03    CP:  1.00D+00
 E= -7517.35743159182     Delta-E=       -0.083121959538 Rises=F Damp=T
 DIIS: error= 8.38D-03 at cycle   2 NSaved=   2.
 NSaved= 2 IEnMin= 2 EnMin= -7517.35743159182     IErMin= 2 ErrMin= 8.38D-03
 ErrMax= 8.38D-03  0.00D+00 EMaxC= 1.00D-01 BMatC= 1.79D-01 BMatP= 1.45D+00
 IDIUse=3 WtCom= 9.16D-01 WtEn= 8.38D-02
 Coeff-Com:  0.679D-01 0.932D+00
 Coeff-En:   0.426D+00 0.574D+00
 Coeff:      0.979D-01 0.902D+00
 Gap=     0.199 Goal=   None    Shift=    0.000
 RMSDP=2.72D-03 MaxDP=1.60D-01 DE=-8.31D-02 OVMax= 4.65D-01

 Cycle   3  Pass 1  IDiag  1:
 RMSU=  2.23D-03    CP:  1.01D+00  3.38D-01
 E= -7516.93275067975     Delta-E=        0.424680912063 Rises=F Damp=F
 DIIS: error= 1.82D-02 at cycle   3 NSaved=   3.
 NSaved= 3 IEnMin= 2 EnMin= -7517.35743159182     IErMin= 2 ErrMin= 8.38D-03
 ErrMax= 1.82D-02  0.00D+00 EMaxC= 1.00D-01 BMatC= 7.33D-01 BMatP= 1.79D-01
 IDIUse=2 WtCom= 0.00D+00 WtEn= 1.00D+00
 EnCoef did     6 forward-backward iterations
 Coeff-En:   0.108D+00 0.615D+00 0.277D+00
 Coeff:      0.108D+00 0.615D+00 0.277D+00
 Gap=     0.195 Goal=   None    Shift=    0.000
 RMSDP=2.69D-03 MaxDP=1.19D-01 DE= 4.25D-01 OVMax= 3.24D-01

 Cycle   4  Pass 1  IDiag  1:
 RMSU=  8.84D-04    CP:  1.00D+00  9.59D-01  6.51D-02
 E= -7517.71118034935     Delta-E=       -0.778429669594 Rises=F Damp=F
 DIIS: error= 7.26D-03 at cycle   4 NSaved=   4.
 NSaved= 4 IEnMin= 4 EnMin= -7517.71118034935     IErMin= 4 ErrMin= 7.26D-03
 ErrMax= 7.26D-03  0.00D+00 EMaxC= 1.00D-01 BMatC= 8.47D-02 BMatP= 1.79D-01
 IDIUse=3 WtCom= 9.27D-01 WtEn= 7.26D-02
 Coeff-Com:  0.333D-01 0.179D+00 0.220D+00 0.567D+00
 Coeff-En:   0.000D+00 0.000D+00 0.177D+00 0.823D+00
 Coeff:      0.309D-01 0.166D+00 0.217D+00 0.585D+00
 Gap=     0.133 Goal=   None    Shift=    0.000
 RMSDP=1.10D-03 MaxDP=5.78D-02 DE=-7.78D-01 OVMax= 1.11D-01

 Cycle   5  Pass 1  IDiag  1:
 RMSU=  6.35D-04    CP:  1.00D+00  7.32D-01  3.24D-01  5.20D-01
 E= -7517.79210747385     Delta-E=       -0.080927124505 Rises=F Damp=F
 DIIS: error= 3.56D-03 at cycle   5 NSaved=   5.
 NSaved= 5 IEnMin= 5 EnMin= -7517.79210747385     IErMin= 5 ErrMin= 3.56D-03
 ErrMax= 3.56D-03  0.00D+00 EMaxC= 1.00D-01 BMatC= 2.62D-02 BMatP= 8.47D-02
 IDIUse=3 WtCom= 9.64D-01 WtEn= 3.56D-02
 Coeff-Com:  0.340D-01-0.733D-01 0.629D-01 0.463D+00 0.513D+00
 Coeff-En:   0.000D+00 0.000D+00 0.000D+00 0.262D+00 0.738D+00
 Coeff:      0.328D-01-0.707D-01 0.606D-01 0.456D+00 0.521D+00
 Gap=     0.123 Goal=   None    Shift=    0.000
 RMSDP=4.18D-04 MaxDP=2.18D-02 DE=-8.09D-02 OVMax= 4.34D-02

 Cycle   6  Pass 1  IDiag  1:
 RMSU=  1.32D-04    CP:  1.00D+00  7.41D-01  2.31D-01  7.51D-01  5.83D-01
 E= -7517.81887900933     Delta-E=       -0.026771535475 Rises=F Damp=F
 DIIS: error= 6.28D-04 at cycle   6 NSaved=   6.
 NSaved= 6 IEnMin= 6 EnMin= -7517.81887900933     IErMin= 6 ErrMin= 6.28D-04
 ErrMax= 6.28D-04  0.00D+00 EMaxC= 1.00D-01 BMatC= 9.32D-04 BMatP= 2.62D-02
 IDIUse=3 WtCom= 9.94D-01 WtEn= 6.28D-03
 Coeff-Com:  0.132D-01-0.379D-01 0.922D-02 0.148D+00 0.246D+00 0.622D+00
 Coeff-En:   0.000D+00 0.000D+00 0.000D+00 0.000D+00 0.000D+00 0.100D+01
 Coeff:      0.131D-01-0.377D-01 0.916D-02 0.147D+00 0.244D+00 0.624D+00
 Gap=     0.122 Goal=   None    Shift=    0.000
 RMSDP=1.25D-04 MaxDP=6.50D-03 DE=-2.68D-02 OVMax= 1.36D-02

 Cycle   7  Pass 1  IDiag  1:
 RMSU=  9.38D-05    CP:  1.00D+00  7.46D-01  2.43D-01  7.52D-01  6.33D-01
                    CP:  4.63D-01
 E= -7517.81883128110     Delta-E=        0.000047728226 Rises=F Damp=F
 DIIS: error= 7.25D-04 at cycle   7 NSaved=   7.
 NSaved= 7 IEnMin= 6 EnMin= -7517.81887900933     IErMin= 6 ErrMin= 6.28D-04
 ErrMax= 7.25D-04  0.00D+00 EMaxC= 1.00D-01 BMatC= 6.22D-04 BMatP= 9.32D-04
 IDIUse=3 WtCom= 9.94D-01 WtEn= 6.28D-03
 Coeff-Com:  0.772D-02-0.222D-01 0.119D-02 0.731D-01 0.141D+00 0.479D+00
 Coeff-Com:  0.320D+00
 Coeff-En:   0.000D+00 0.000D+00 0.000D+00 0.000D+00 0.000D+00 0.512D+00
 Coeff-En:   0.488D+00
 Coeff:      0.768D-02-0.221D-01 0.119D-02 0.727D-01 0.140D+00 0.479D+00
 Coeff:      0.321D+00
 Gap=     0.122 Goal=   None    Shift=    0.000
 RMSDP=8.47D-05 MaxDP=3.56D-03 DE= 4.77D-05 OVMax= 9.99D-03

 Cycle   8  Pass 1  IDiag  1:
 RMSU=  3.81D-05    CP:  1.00D+00  7.46D-01  2.47D-01  7.53D-01  6.33D-01
                    CP:  7.55D-01  3.11D-01
 E= -7517.81960259372     Delta-E=       -0.000771312620 Rises=F Damp=F
 DIIS: error= 2.19D-04 at cycle   8 NSaved=   8.
 NSaved= 8 IEnMin= 8 EnMin= -7517.81960259372     IErMin= 8 ErrMin= 2.19D-04
 ErrMax= 2.19D-04  0.00D+00 EMaxC= 1.00D-01 BMatC= 6.73D-05 BMatP= 6.22D-04
 IDIUse=3 WtCom= 9.98D-01 WtEn= 2.19D-03
 Coeff-Com:  0.242D-02-0.622D-02-0.169D-02 0.164D-01 0.375D-01 0.182D+00
 Coeff-Com:  0.249D+00 0.520D+00
 Coeff-En:   0.000D+00 0.000D+00 0.000D+00 0.000D+00 0.000D+00 0.000D+00
 Coeff-En:   0.147D+00 0.853D+00
 Coeff:      0.241D-02-0.621D-02-0.168D-02 0.163D-01 0.374D-01 0.182D+00
 Coeff:      0.249D+00 0.521D+00
 Gap=     0.122 Goal=   None    Shift=    0.000
 RMSDP=2.68D-05 MaxDP=1.63D-03 DE=-7.71D-04 OVMax= 3.10D-03

 Cycle   9  Pass 1  IDiag  1:
 RMSU=  1.36D-05    CP:  1.00D+00  7.46D-01  2.43D-01  7.52D-01  6.35D-01
                    CP:  7.50D-01  4.51D-01  5.47D-01
 E= -7517.81968490903     Delta-E=       -0.000082315308 Rises=F Damp=F
 DIIS: error= 5.92D-05 at cycle   9 NSaved=   9.
 NSaved= 9 IEnMin= 9 EnMin= -7517.81968490903     IErMin= 9 ErrMin= 5.92D-05
 ErrMax= 5.92D-05  0.00D+00 EMaxC= 1.00D-01 BMatC= 8.02D-06 BMatP= 6.73D-05
 IDIUse=1 WtCom= 1.00D+00 WtEn= 0.00D+00
 Coeff-Com:  0.725D-03-0.157D-02-0.149D-02 0.162D-02 0.765D-02 0.690D-01
 Coeff-Com:  0.134D+00 0.344D+00 0.446D+00
 Coeff:      0.725D-03-0.157D-02-0.149D-02 0.162D-02 0.765D-02 0.690D-01
 Coeff:      0.134D+00 0.344D+00 0.446D+00
 Gap=     0.122 Goal=   None    Shift=    0.000
 RMSDP=9.98D-06 MaxDP=6.48D-04 DE=-8.23D-05 OVMax= 9.65D-04

 Cycle  10  Pass 1  IDiag  1:
 RMSU=  4.87D-06    CP:  1.00D+00  7.45D-01  2.43D-01  7.53D-01  6.37D-01
                    CP:  7.38D-01  4.69D-01  6.70D-01  5.09D-01
 E= -7517.81969268547     Delta-E=       -0.000007776445 Rises=F Damp=F
 DIIS: error= 2.85D-05 at cycle  10 NSaved=  10.
 NSaved=10 IEnMin=10 EnMin= -7517.81969268547     IErMin=10 ErrMin= 2.85D-05
 ErrMax= 2.85D-05  0.00D+00 EMaxC= 1.00D-01 BMatC= 1.12D-06 BMatP= 8.02D-06
 IDIUse=1 WtCom= 1.00D+00 WtEn= 0.00D+00
 Coeff-Com:  0.324D-03-0.645D-03-0.867D-03-0.193D-03 0.194D-02 0.325D-01
 Coeff-Com:  0.717D-01 0.191D+00 0.313D+00 0.391D+00
 Coeff:      0.324D-03-0.645D-03-0.867D-03-0.193D-03 0.194D-02 0.325D-01
 Coeff:      0.717D-01 0.191D+00 0.313D+00 0.391D+00
 Gap=     0.122 Goal=   None    Shift=    0.000
 RMSDP=4.06D-06 MaxDP=1.54D-04 DE=-7.78D-06 OVMax= 5.12D-04

 Cycle  11  Pass 1  IDiag  1:
 RMSU=  2.69D-06    CP:  1.00D+00  7.45D-01  2.43D-01  7.54D-01  6.37D-01
                    CP:  7.42D-01  4.71D-01  6.77D-01  5.93D-01  4.45D-01
 E= -7517.81969374791     Delta-E=       -0.000001062439 Rises=F Damp=F
 DIIS: error= 1.33D-05 at cycle  11 NSaved=  11.
 NSaved=11 IEnMin=11 EnMin= -7517.81969374791     IErMin=11 ErrMin= 1.33D-05
 ErrMax= 1.33D-05  0.00D+00 EMaxC= 1.00D-01 BMatC= 3.77D-07 BMatP= 1.12D-06
 IDIUse=1 WtCom= 1.00D+00 WtEn= 0.00D+00
 Coeff-Com:  0.395D-04-0.721D-04-0.208D-03-0.730D-03-0.128D-02 0.507D-02
 Coeff-Com:  0.169D-01 0.480D-01 0.128D+00 0.349D+00 0.455D+00
 Coeff:      0.395D-04-0.721D-04-0.208D-03-0.730D-03-0.128D-02 0.507D-02
 Coeff:      0.169D-01 0.480D-01 0.128D+00 0.349D+00 0.455D+00
 Gap=     0.122 Goal=   None    Shift=    0.000
 RMSDP=1.70D-06 MaxDP=6.20D-05 DE=-1.06D-06 OVMax= 2.10D-04

 Cycle  12  Pass 1  IDiag  1:
 RMSU=  7.53D-07    CP:  1.00D+00  7.45D-01  2.43D-01  7.54D-01  6.38D-01
                    CP:  7.45D-01  4.72D-01  6.79D-01  6.09D-01  6.49D-01
                    CP:  6.01D-01
 E= -7517.81969420411     Delta-E=       -0.000000456193 Rises=F Damp=F
 DIIS: error= 3.68D-06 at cycle  12 NSaved=  12.
 NSaved=12 IEnMin=12 EnMin= -7517.81969420411     IErMin=12 ErrMin= 3.68D-06
 ErrMax= 3.68D-06  0.00D+00 EMaxC= 1.00D-01 BMatC= 1.88D-08 BMatP= 3.77D-07
 IDIUse=1 WtCom= 1.00D+00 WtEn= 0.00D+00
 Coeff-Com: -0.378D-04 0.710D-04 0.625D-04-0.519D-03-0.145D-02-0.347D-02
 Coeff-Com: -0.404D-02-0.105D-01 0.127D-01 0.119D+00 0.224D+00 0.664D+00
 Coeff:     -0.378D-04 0.710D-04 0.625D-04-0.519D-03-0.145D-02-0.347D-02
 Coeff:     -0.404D-02-0.105D-01 0.127D-01 0.119D+00 0.224D+00 0.664D+00
 Gap=     0.122 Goal=   None    Shift=    0.000
 RMSDP=5.18D-07 MaxDP=1.86D-05 DE=-4.56D-07 OVMax= 6.88D-05

 Cycle  13  Pass 1  IDiag  1:
 RMSU=  3.18D-07    CP:  1.00D+00  7.45D-01  2.43D-01  7.54D-01  6.38D-01
                    CP:  7.46D-01  4.74D-01  6.81D-01  6.19D-01  6.75D-01
                    CP:  6.65D-01  8.36D-01
 E= -7517.81969422271     Delta-E=       -0.000000018599 Rises=F Damp=F
 DIIS: error= 9.62D-07 at cycle  13 NSaved=  13.
 NSaved=13 IEnMin=13 EnMin= -7517.81969422271     IErMin=13 ErrMin= 9.62D-07
 ErrMax= 9.62D-07  0.00D+00 EMaxC= 1.00D-01 BMatC= 2.34D-09 BMatP= 1.88D-08
 IDIUse=1 WtCom= 1.00D+00 WtEn= 0.00D+00
 Coeff-Com: -0.211D-04 0.398D-04 0.553D-04-0.242D-03-0.722D-03-0.225D-02
 Coeff-Com: -0.368D-02-0.101D-01-0.432D-02 0.342D-01 0.875D-01 0.386D+00
 Coeff-Com:  0.513D+00
 Coeff:     -0.211D-04 0.398D-04 0.553D-04-0.242D-03-0.722D-03-0.225D-02
 Coeff:     -0.368D-02-0.101D-01-0.432D-02 0.342D-01 0.875D-01 0.386D+00
 Coeff:      0.513D+00
 Gap=     0.122 Goal=   None    Shift=    0.000
 RMSDP=1.90D-07 MaxDP=1.52D-05 DE=-1.86D-08 OVMax= 2.62D-05

 Cycle  14  Pass 1  IDiag  1:
 RMSU=  1.06D-07    CP:  1.00D+00  7.45D-01  2.43D-01  7.54D-01  6.38D-01
                    CP:  7.46D-01  4.75D-01  6.83D-01  6.21D-01  6.82D-01
                    CP:  6.69D-01  9.25D-01  6.89D-01
 E= -7517.81969422512     Delta-E=       -0.000000002416 Rises=F Damp=F
 DIIS: error= 3.34D-07 at cycle  14 NSaved=  14.
 NSaved=14 IEnMin=14 EnMin= -7517.81969422512     IErMin=14 ErrMin= 3.34D-07
 ErrMax= 3.34D-07  0.00D+00 EMaxC= 1.00D-01 BMatC= 2.29D-10 BMatP= 2.34D-09
 IDIUse=1 WtCom= 1.00D+00 WtEn= 0.00D+00
 Coeff-Com: -0.481D-05 0.890D-05 0.191D-04-0.541D-04-0.168D-03-0.720D-03
 Coeff-Com: -0.144D-02-0.401D-02-0.437D-02-0.186D-02 0.133D-01 0.108D+00
 Coeff-Com:  0.270D+00 0.622D+00
 Coeff:     -0.481D-05 0.890D-05 0.191D-04-0.541D-04-0.168D-03-0.720D-03
 Coeff:     -0.144D-02-0.401D-02-0.437D-02-0.186D-02 0.133D-01 0.108D+00
 Coeff:      0.270D+00 0.622D+00
 Gap=     0.122 Goal=   None    Shift=    0.000
 RMSDP=6.45D-08 MaxDP=3.04D-06 DE=-2.42D-09 OVMax= 1.08D-05

 Cycle  15  Pass 1  IDiag  1:
 RMSU=  3.45D-08    CP:  1.00D+00  7.45D-01  2.43D-01  7.54D-01  6.38D-01
                    CP:  7.46D-01  4.75D-01  6.83D-01  6.22D-01  6.82D-01
                    CP:  6.80D-01  9.27D-01  7.83D-01  8.46D-01
 E= -7517.81969422578     Delta-E=       -0.000000000660 Rises=F Damp=F
 DIIS: error= 1.10D-07 at cycle  15 NSaved=  15.
 NSaved=15 IEnMin=15 EnMin= -7517.81969422578     IErMin=15 ErrMin= 1.10D-07
 ErrMax= 1.10D-07  0.00D+00 EMaxC= 1.00D-01 BMatC= 2.54D-11 BMatP= 2.29D-10
 IDIUse=1 WtCom= 1.00D+00 WtEn= 0.00D+00
 Coeff-Com:  0.124D-05-0.240D-05 0.612D-07 0.142D-04 0.348D-04 0.418D-05
 Coeff-Com: -0.938D-04-0.426D-03-0.118D-02-0.495D-02-0.704D-02-0.487D-02
 Coeff-Com:  0.438D-01 0.272D+00 0.703D+00
 Coeff:      0.124D-05-0.240D-05 0.612D-07 0.142D-04 0.348D-04 0.418D-05
 Coeff:     -0.938D-04-0.426D-03-0.118D-02-0.495D-02-0.704D-02-0.487D-02
 Coeff:      0.438D-01 0.272D+00 0.703D+00
 Gap=     0.122 Goal=   None    Shift=    0.000
 RMSDP=2.04D-08 MaxDP=9.39D-07 DE=-6.60D-10 OVMax= 3.13D-06

 Cycle  16  Pass 1  IDiag  1:
 RMSU=  9.62D-09    CP:  1.00D+00  7.45D-01  2.43D-01  7.54D-01  6.38D-01
                    CP:  7.46D-01  4.75D-01  6.83D-01  6.22D-01  6.83D-01
                    CP:  6.80D-01  9.40D-01  7.88D-01  9.30D-01  9.15D-01
 E= -7517.81969422578     Delta-E=       -0.000000000002 Rises=F Damp=F
 DIIS: error= 2.69D-08 at cycle  16 NSaved=  16.
 NSaved=16 IEnMin=16 EnMin= -7517.81969422578     IErMin=16 ErrMin= 2.69D-08
 ErrMax= 2.69D-08  0.00D+00 EMaxC= 1.00D-01 BMatC= 1.79D-12 BMatP= 2.54D-11
 IDIUse=1 WtCom= 1.00D+00 WtEn= 0.00D+00
 Coeff-Com:  0.763D-06-0.151D-05-0.907D-06 0.920D-05 0.250D-04 0.425D-04
 Coeff-Com:  0.505D-04 0.562D-04-0.278D-03-0.195D-02-0.408D-02-0.922D-02
 Coeff-Com:  0.375D-02 0.819D-01 0.303D+00 0.627D+00
 Coeff:      0.763D-06-0.151D-05-0.907D-06 0.920D-05 0.250D-04 0.425D-04
 Coeff:      0.505D-04 0.562D-04-0.278D-03-0.195D-02-0.408D-02-0.922D-02
 Coeff:      0.375D-02 0.819D-01 0.303D+00 0.627D+00
 Gap=     0.122 Goal=   None    Shift=    0.000
 RMSDP=5.75D-09 MaxDP=3.45D-07 DE=-1.82D-12 OVMax= 8.35D-07

 SCF Done:  E(RPBE1PBE) =  -7517.81969423     A.U. after   16 cycles
            NFock= 16  Conv=0.57D-08     -V/T= 2.1285
 KE= 6.661934266589D+03 PE=-2.467077557616D+04 EE= 6.951243427312D+03
 Leave Link  502 at Tue Mar  6 12:11:36 2018, MaxMem=   536870912 cpu:      3391.1
 (Enter /share/apps//mg09/l601.exe)
 Copying SCF densities to generalized density rwf, IOpCl= 0 IROHF=0.

 **********************************************************************

            Population analysis using the SCF density.

 **********************************************************************

 Orbital symmetries:
       Occupied  (A) (A) (A) (A) (A) (A) (A) (A) (A) (A) (A) (A)
                 (A) (A) (A) (A) (A) (A) (A) (A) (A) (A) (A) (A)
                 (A) (A) (A) (A) (A) (A) (A) (A) (A) (A) (A) (A)
                 (A) (A) (A) (A) (A) (A) (A) (A) (A) (A) (A) (A)
                 (A) (A) (A) (A) (A) (A) (A) (A) (A) (A) (A) (A)
                 (A) (A) (A) (A) (A) (A) (A) (A) (A) (A) (A) (A)
                 (A) (A) (A) (A) (A) (A) (A) (A) (A) (A) (A) (A)
                 (A) (A) (A) (A) (A) (A) (A) (A) (A) (A) (A) (A)
                 (A) (A) (A) (A) (A) (A) (A) (A) (A) (A) (A) (A)
                 (A) (A) (A) (A) (A) (A) (A) (A)
       Virtual   (A) (A) (A) (A) (A) (A) (A) (A) (A) (A) (A) (A)
                 (A) (A) (A) (A) (A) (A) (A) (A) (A) (A) (A) (A)
                 (A) (A) (A) (A) (A) (A) (A) (A) (A) (A) (A) (A)
                 (A) (A) (A) (A) (A) (A) (A) (A) (A) (A) (A) (A)
                 (A) (A) (A) (A) (A) (A) (A) (A) (A) (A) (A) (A)
                 (A) (A) (A) (A) (A) (A) (A) (A) (A) (A) (A) (A)
                 (A) (A) (A) (A) (A) (A) (A) (A) (A) (A) (A) (A)
                 (A) (A) (A) (A) (A) (A) (A) (A) (A) (A) (A) (A)
                 (A) (A) (A) (A) (A) (A) (A) (A) (A) (A) (A) (A)
                 (A) (A) (A) (A) (A) (A) (A) (A) (A) (A) (A) (A)
                 (A) (A) (A) (A) (A) (A) (A) (A) (A) (A) (A) (A)
                 (A) (A) (A) (A) (A) (A) (A) (A) (A) (A) (A) (A)
                 (A) (A) (A) (A) (A) (A) (A) (A) (A) (A) (A) (A)
                 (A) (A) (A) (A) (A) (A) (A) (A) (A) (A) (A) (A)
                 (A) (A) (A) (A) (A) (A) (A) (A) (A) (A) (A) (A)
                 (A) (A) (A) (A) (A) (A) (A) (A) (A) (A) (A) (A)
                 (A) (A) (A) (A) (A) (A) (A) (A) (A) (A) (A) (A)
                 (A) (A) (A) (A) (A) (A) (A) (A) (A) (A) (A) (A)
                 (A) (A) (A) (A) (A) (A) (A) (A) (A) (A) (A) (A)
                 (A) (A) (A) (A) (A) (A) (A) (A) (A) (A) (A) (A)
                 (A) (A) (A) (A) (A) (A) (A) (A) (A) (A) (A) (A)
                 (A) (A) (A) (A) (A) (A) (A) (A) (A) (A) (A) (A)
                 (A) (A) (A) (A) (A) (A) (A) (A) (A) (A) (A) (A)
                 (A) (A) (A) (A) (A) (A) (A) (A) (A) (A) (A) (A)
                 (A) (A) (A) (A) (A) (A) (A) (A) (A) (A) (A) (A)
                 (A) (A) (A) (A) (A) (A) (A) (A) (A) (A) (A) (A)
                 (A) (A) (A) (A) (A) (A) (A) (A) (A) (A) (A) (A)
                 (A) (A) (A) (A)
 The electronic state is 1-A.
 Alpha  occ. eigenvalues -- -399.10700-399.09931-399.08904 -49.92245 -49.91490
 Alpha  occ. eigenvalues --  -49.90492 -44.40329 -44.40293 -44.40285 -44.39580
 Alpha  occ. eigenvalues --  -44.39548 -44.39512 -44.38568 -44.38548 -44.38521
 Alpha  occ. eigenvalues --   -6.28741  -6.27992  -6.26996  -6.01928  -6.01403
 Alpha  occ. eigenvalues --   -6.01239  -6.01092  -5.14247  -5.13605  -4.44171
 Alpha  occ. eigenvalues --   -4.44069  -4.44032  -4.43451  -4.43366  -4.43221
 Alpha  occ. eigenvalues --   -4.42431  -4.42355  -4.42264  -3.74191  -3.74046
 Alpha  occ. eigenvalues --   -3.73952  -3.73733  -3.73482  -3.73446  -3.73440
 Alpha  occ. eigenvalues --   -3.73417  -3.73411  -3.73236  -3.73181  -3.73075
 Alpha  occ. eigenvalues --   -3.47460  -3.47357  -3.47267  -3.46827  -3.46758
 Alpha  occ. eigenvalues --   -3.46579  -1.23607  -1.23580  -1.23533  -1.23494
 Alpha  occ. eigenvalues --   -1.23452  -1.22920  -1.22890  -1.22763  -1.22726
 Alpha  occ. eigenvalues --   -1.22678  -1.21878  -1.21864  -1.21801  -1.21723
 Alpha  occ. eigenvalues --   -1.21693  -1.08266  -1.07890  -1.07826  -1.07790
 Alpha  occ. eigenvalues --   -1.07604  -1.07252  -1.07200  -1.07193  -1.07112
 Alpha  occ. eigenvalues --   -1.07067  -1.07046  -1.07026  -1.07006  -1.07002
 Alpha  occ. eigenvalues --   -1.06938  -1.06882  -1.06842  -1.06754  -1.06682
 Alpha  occ. eigenvalues --   -1.06620  -1.03614  -1.03600  -1.03515  -1.03451
 Alpha  occ. eigenvalues --   -1.03416  -1.03020  -1.02997  -1.02866  -1.02825
 Alpha  occ. eigenvalues --   -1.02754  -0.66225  -0.61446  -0.60338  -0.57614
 Alpha  occ. eigenvalues --   -0.49416  -0.45986  -0.44228  -0.42890  -0.41632
 Alpha  occ. eigenvalues --   -0.28733  -0.27505  -0.25953  -0.25690  -0.24999
 Alpha  occ. eigenvalues --   -0.24316  -0.23136  -0.22884  -0.22130  -0.21290
 Alpha  occ. eigenvalues --   -0.20487
 Alpha virt. eigenvalues --   -0.08291  -0.07723  -0.06459  -0.06081  -0.05757
 Alpha virt. eigenvalues --   -0.05354  -0.05044  -0.04543  -0.03907  -0.03497
 Alpha virt. eigenvalues --   -0.03410  -0.02841  -0.01884   0.03744   0.04776
 Alpha virt. eigenvalues --    0.05038   0.06293   0.08108   0.08529   0.08653
 Alpha virt. eigenvalues --    0.09387   0.09742   0.09810   0.10202   0.10970
 Alpha virt. eigenvalues --    0.11177   0.11670   0.11865   0.12338   0.13114
 Alpha virt. eigenvalues --    0.13615   0.15023   0.16127   0.16881   0.17274
 Alpha virt. eigenvalues --    0.17645   0.18014   0.19843   0.20068   0.20375
 Alpha virt. eigenvalues --    0.21082   0.21406   0.22488   0.23344   0.24103
 Alpha virt. eigenvalues --    0.24963   0.26197   0.26735   0.27529   0.28343
 Alpha virt. eigenvalues --    0.29421   0.29455   0.30597   0.30667   0.31105
 Alpha virt. eigenvalues --    0.31351   0.31920   0.32913   0.33077   0.33729
 Alpha virt. eigenvalues --    0.34940   0.35342   0.35844   0.36342   0.37866
 Alpha virt. eigenvalues --    0.38572   0.38914   0.39804   0.40993   0.42046
 Alpha virt. eigenvalues --    0.42582   0.43225   0.43717   0.44307   0.44590
 Alpha virt. eigenvalues --    0.45477   0.46801   0.47307   0.47756   0.48354
 Alpha virt. eigenvalues --    0.48722   0.49756   0.49857   0.50266   0.51280
 Alpha virt. eigenvalues --    0.51581   0.54313   0.54900   0.55717   0.56567
 Alpha virt. eigenvalues --    0.57185   0.58327   0.58548   0.59633   0.59657
 Alpha virt. eigenvalues --    0.60341   0.60707   0.61190   0.61497   0.63165
 Alpha virt. eigenvalues --    0.63746   0.64161   0.64430   0.65512   0.66009
 Alpha virt. eigenvalues --    0.66175   0.66620   0.67482   0.68912   0.69567
 Alpha virt. eigenvalues --    0.69789   0.70179   0.71341   0.72979   0.73498
 Alpha virt. eigenvalues --    0.74713   0.75164   0.75923   0.77481   0.78394
 Alpha virt. eigenvalues --    0.79554   0.80145   0.81408   0.82192   0.82855
 Alpha virt. eigenvalues --    0.83274   0.84598   0.85099   0.85633   0.85724
 Alpha virt. eigenvalues --    0.86908   0.86940   0.88021   0.89524   0.89899
 Alpha virt. eigenvalues --    0.90765   0.91500   0.92202   0.93155   0.93907
 Alpha virt. eigenvalues --    0.94155   0.95315   0.96062   0.97077   0.97526
 Alpha virt. eigenvalues --    0.97921   0.98609   0.99749   1.00537   1.01711
 Alpha virt. eigenvalues --    1.02937   1.04276   1.05609   1.06162   1.07120
 Alpha virt. eigenvalues --    1.08599   1.09106   1.09752   1.11440   1.11832
 Alpha virt. eigenvalues --    1.12446   1.13782   1.15365   1.15565   1.16501
 Alpha virt. eigenvalues --    1.17262   1.17901   1.18916   1.19254   1.19387
 Alpha virt. eigenvalues --    1.19990   1.20506   1.21194   1.21668   1.21983
 Alpha virt. eigenvalues --    1.22352   1.23183   1.23335   1.24115   1.24582
 Alpha virt. eigenvalues --    1.24916   1.25432   1.25741   1.26424   1.26661
 Alpha virt. eigenvalues --    1.27550   1.28452   1.28886   1.29381   1.29602
 Alpha virt. eigenvalues --    1.30477   1.31142   1.32348   1.32771   1.33366
 Alpha virt. eigenvalues --    1.34383   1.35467   1.36918   1.37003   1.37975
 Alpha virt. eigenvalues --    1.39386   1.41078   1.41773   1.42846   1.43089
 Alpha virt. eigenvalues --    1.45873   1.46061   1.46656   1.47674   1.49005
 Alpha virt. eigenvalues --    1.49629   1.51084   1.51286   1.51878   1.53315
 Alpha virt. eigenvalues --    1.54582   1.55534   1.57076   1.58616   1.60142
 Alpha virt. eigenvalues --    1.61254   1.63499   1.67909   2.04665   2.10025
 Alpha virt. eigenvalues --    2.10307   2.12608   2.13841   2.16191   2.16363
 Alpha virt. eigenvalues --    2.16756   2.18279   2.18935   2.20128   2.20916
 Alpha virt. eigenvalues --    2.22054   2.22200   2.23234   2.25372   2.26132
 Alpha virt. eigenvalues --    2.26896   2.27532   2.28240   2.30493   2.30718
 Alpha virt. eigenvalues --    2.32553   2.34876   2.35116   2.37334   2.38833
 Alpha virt. eigenvalues --    2.39852   2.40372   2.42634   2.43679   2.44960
 Alpha virt. eigenvalues --    2.45999   2.50267   2.52578   2.54083   2.56146
 Alpha virt. eigenvalues --    2.58674   2.60377   2.61770   2.64114   2.66490
 Alpha virt. eigenvalues --    2.67663   2.70957   2.72386   2.73668   2.74685
 Alpha virt. eigenvalues --    2.76955   2.77971   2.78960   2.80510   2.81073
 Alpha virt. eigenvalues --    2.82336   2.83149   2.84842   2.88428   2.96110
 Alpha virt. eigenvalues --    3.20029   3.27398   3.29389   3.36284   3.38110
 Alpha virt. eigenvalues --    3.40174   3.92330   3.95183   3.97875   4.00465
 Alpha virt. eigenvalues --    4.02374   4.06233   4.07330   4.09577   4.11816
 Alpha virt. eigenvalues --    5.18503   5.31808   5.42534  35.36968  35.40683
 Alpha virt. eigenvalues --   35.42135  35.44635  35.45485  35.46613  35.50816
 Alpha virt. eigenvalues --   35.51938  35.52313  35.52917  35.56867  35.64063
 Alpha virt. eigenvalues --   35.85959  35.98492  36.01817  36.03043  36.17866
 Alpha virt. eigenvalues --   36.22660  36.89476  36.97132  37.01210  37.02210
 Alpha virt. eigenvalues --   37.06922  37.17380 113.56376 113.59385 120.21746
 Alpha virt. eigenvalues --  120.24517 120.25080 120.25349
          Condensed to atoms (all electrons):
               1          2          3          4          5          6
     1  Ge  31.507989   0.155339   0.050219   0.159463  -0.018953  -0.016037
     2  Bi   0.155339  22.383005   0.148297   0.178572   0.180699  -0.012788
     3  Sn   0.050219   0.148297  21.383041  -0.017944   0.156044  -0.013773
     4  Bi   0.159463   0.178572  -0.017944  22.327540  -0.021749   0.181907
     5  Bi  -0.018953   0.180699   0.156044  -0.021749  22.393021   0.181518
     6  Ge  -0.016037  -0.012788  -0.013773   0.181907   0.181518  31.570090
     7  Ge   0.047812  -0.017988  -0.015519   0.160477  -0.020866   0.134947
     8  Sn  -0.014441  -0.016670   0.062656  -0.019904   0.149342   0.141445
     9  Bi   0.194678  -0.020208   0.177233  -0.025220  -0.018296  -0.017501
               7          8          9
     1  Ge   0.047812  -0.014441   0.194678
     2  Bi  -0.017988  -0.016670  -0.020208
     3  Sn  -0.015519   0.062656   0.177233
     4  Bi   0.160477  -0.019904  -0.025220
     5  Bi  -0.020866   0.149342  -0.018296
     6  Ge   0.134947   0.141445  -0.017501
     7  Ge  31.505400   0.105687   0.162787
     8  Sn   0.105687  21.357419   0.149273
     9  Bi   0.162787   0.149273  22.391420
 Mulliken charges:
               1
     1  Ge  -0.066069
     2  Bi   0.021743
     3  Sn   0.069747
     4  Bi   0.076859
     5  Bi   0.019239
     6  Ge  -0.149808
     7  Ge  -0.062737
     8  Sn   0.085193
     9  Bi   0.005833
 Sum of Mulliken charges =   0.00000
 Mulliken charges with hydrogens summed into heavy atoms:
               1
     1  Ge  -0.066069
     2  Bi   0.021743
     3  Sn   0.069747
     4  Bi   0.076859
     5  Bi   0.019239
     6  Ge  -0.149808
     7  Ge  -0.062737
     8  Sn   0.085193
     9  Bi   0.005833
 Electronic spatial extent (au):  <R**2>=           6009.2869
 Charge=              0.0000 electrons
 Dipole moment (field-independent basis, Debye):
    X=             -0.2232    Y=              0.6684    Z=             -1.1489  Tot=              1.3478
 Quadrupole moment (field-independent basis, Debye-Ang):
   XX=           -213.5286   YY=           -218.6484   ZZ=           -221.7174
   XY=              1.3111   XZ=              0.5644   YZ=             -0.3103
 Traceless Quadrupole moment (field-independent basis, Debye-Ang):
   XX=              4.4362   YY=             -0.6836   ZZ=             -3.7526
   XY=              1.3111   XZ=              0.5644   YZ=             -0.3103
 Octapole moment (field-independent basis, Debye-Ang**2):
  XXX=            -66.4148  YYY=             18.9364  ZZZ=            -53.4736  XYY=            -29.5036
  XXY=              1.9364  XXZ=            -20.3608  XZZ=            -20.9492  YZZ=              8.6516
  YYZ=            -10.7835  XYZ=              2.5406
 Hexadecapole moment (field-independent basis, Debye-Ang**3):
 XXXX=          -3506.6765 YYYY=          -3229.1361 ZZZZ=          -3077.2284 XXXY=            -24.5934
 XXXZ=            -20.2849 YYYX=            -19.0294 YYYZ=             20.4808 ZZZX=            -12.4755
 ZZZY=             19.8722 XXYY=          -1115.9349 XXZZ=          -1082.5694 YYZZ=          -1034.1887
 XXYZ=             -0.1826 YYXZ=            -22.2210 ZZXY=             -7.8662
 N-N= 3.539778188038D+03 E-N=-2.467077561004D+04  KE= 6.661934266589D+03
 No NMR shielding tensors so no spin-rotation constants.
 Leave Link  601 at Tue Mar  6 12:11:37 2018, MaxMem=   536870912 cpu:         2.0
 (Enter /share/apps//mg09/l701.exe)
 Compute integral first derivatives.
 ... and contract with generalized density number  0.
   1 Symmetry operations used in ECPInt.
 ECPInt:  NShTT=   10440 NPrTT=   41973 LenC2=    9670 LenP2D=   27412.
 LDataN:  DoStor=T MaxTD1= 9 Len=  602
 Leave Link  701 at Tue Mar  6 12:12:07 2018, MaxMem=   536870912 cpu:        98.3
 (Enter /share/apps//mg09/l702.exe)
 L702 exits ... SP integral derivatives will be done elsewhere.
 Leave Link  702 at Tue Mar  6 12:12:07 2018, MaxMem=   536870912 cpu:         0.1
 (Enter /share/apps//mg09/l703.exe)
 Compute integral first derivatives, UseDBF=F ICtDFT=           0.
 Integral derivatives from FoFJK, PRISM(SPDF).
 Calling FoFJK, ICntrl=      2127 FMM=F ISym2X=0 I1Cent= 0 IOpClX= 0 NMat=1 NMatS=1 NMatT=0.
 FoFJK:  IHMeth= 1 ICntrl=    2127 DoSepK=F KAlg= 0 I1Cent=   0 FoldK=F
 IRaf=         0 NMat=   1 IRICut=       1 DoRegI=T DoRafI=F ISym2E= 0.
 FoFCou: FMM=F IPFlag=           0 FMFlag=      100000 FMFlg1=         800
         NFxFlg=           0 DoJE=F BraDBF=F KetDBF=F FulRan=T
         wScrn=  0.000000 ICntrl=    2127 IOpCl=  0 I1Cent=           0 NGrid=           0
         NMat0=    1 NMatS0=      1 NMatT0=    0 NMatD0=    1 NMtDS0=    0 NMtDT0=    0
 Symmetry not used in FoFCou.
 Defaulting to unpruned grid for atomic number  83.
 Defaulting to unpruned grid for atomic number  83.
 Defaulting to unpruned grid for atomic number  83.
 Defaulting to unpruned grid for atomic number  83.
 Leave Link  703 at Tue Mar  6 12:16:35 2018, MaxMem=   536870912 cpu:      1057.7
 (Enter /share/apps//mg09/l716.exe)
 Dipole        =-8.78208413D-02 2.62963327D-01-4.52018492D-01
 ***** Axes restored to original set *****
 -------------------------------------------------------------------
 Center     Atomic                   Forces (Hartrees/Bohr)
 Number     Number              X              Y              Z
 -------------------------------------------------------------------
      1       32           0.000118542   -0.008288107   -0.009379671
      2       83           0.007556227    0.001969786   -0.003228094
      3       50          -0.003102742    0.007533401   -0.008107565
      4       83           0.009212312   -0.005617559    0.001090577
      5       83           0.004062131    0.007489937    0.000833696
      6       32           0.008774862    0.001946466    0.011907687
      7       32          -0.006727603   -0.012819455    0.004646432
      8       50          -0.010298656    0.008244136    0.005508447
      9       83          -0.009595073   -0.000458604   -0.003271508
 -------------------------------------------------------------------
 Cartesian Forces:  Max     0.012819455 RMS     0.006971423
 Force constants in Cartesian coordinates: 
                1             2             3             4             5 
      1  0.138557D+00
      2  0.934309D-03  0.938246D-01
      3  0.948411D-02  0.232462D-01  0.105063D+00
      4 -0.476851D-01 -0.188187D-01  0.102052D-01  0.151463D+00
      5 -0.277575D-01 -0.425830D-01  0.255214D-02  0.137118D-01  0.121258D+00
      6 -0.823309D-02 -0.156563D-01 -0.130393D-01 -0.289648D-01 -0.740614D-02
      7  0.409125D-02  0.320033D-02 -0.126991D-02 -0.499484D-01  0.167919D-01
      8  0.360861D-02 -0.989434D-02  0.181173D-02  0.445723D-02 -0.242447D-01
      9 -0.328336D-03 -0.224280D-02  0.739455D-03  0.123091D-01  0.238633D-02
     10 -0.456649D-01  0.150127D-01 -0.202974D-01 -0.240767D-01 -0.107118D-01
     11 -0.730948D-03 -0.134206D-01 -0.111216D-01  0.165634D-01 -0.395977D-01
     12 -0.303181D-01  0.988420D-02 -0.512589D-01 -0.568971D-02  0.217103D-01
     13  0.358256D-02 -0.296250D-02 -0.450213D-02 -0.243397D-01  0.145281D-01
     14  0.236595D-02 -0.196811D-02 -0.352951D-02 -0.997497D-02 -0.364192D-01
     15 -0.366508D-03  0.241975D-03  0.817499D-03  0.231025D-02 -0.219032D-01
     16  0.370037D-02 -0.422650D-02 -0.321420D-02 -0.170401D-04 -0.165995D-02
     17 -0.103485D-02  0.174406D-02  0.931770D-03 -0.168357D-02  0.766811D-02
     18  0.273529D-02 -0.378098D-02 -0.248461D-02  0.211382D-02  0.944014D-03
     19  0.337547D-02 -0.191585D-02  0.419843D-02  0.138356D-02 -0.287559D-03
     20 -0.835511D-03  0.939635D-03 -0.166361D-02 -0.610630D-02  0.150382D-02
     21  0.524775D-02  0.190060D-02 -0.101956D-01  0.495941D-02 -0.804672D-03
     22  0.391224D-02  0.404696D-02  0.558364D-02 -0.153858D-02 -0.158573D-02
     23 -0.889713D-03 -0.679648D-03 -0.159170D-02  0.521797D-02  0.421018D-02
     24 -0.589823D-03 -0.851644D-03 -0.649280D-03  0.415918D-02  0.246078D-02
     25 -0.638691D-01  0.472918D-02 -0.187685D-03 -0.524084D-02 -0.302922D-02
     26  0.243396D-01 -0.279625D-01 -0.106355D-01 -0.336685D-02  0.820493D-02
     27  0.223688D-01 -0.127413D-01 -0.289926D-01 -0.140250D-02  0.604157D-04
                6             7             8             9            10 
      6  0.108019D+00
      7 -0.162099D-01  0.117194D+00
      8  0.143470D-01  0.195521D-02  0.104791D+00
      9 -0.193311D-01  0.183038D-01 -0.286723D-01  0.121930D+00
     10  0.183242D-01  0.264373D-02  0.496188D-02 -0.498580D-02  0.171347D+00
     11  0.167270D-01 -0.452099D-03 -0.887707D-03  0.130948D-02 -0.377312D-01
     12 -0.341642D-01 -0.282888D-03 -0.316328D-03  0.812847D-03  0.610068D-02
     13  0.231444D-01 -0.296140D-01 -0.193332D-01 -0.141041D-01  0.746694D-03
     14 -0.799369D-02 -0.290188D-02 -0.204594D-01  0.101892D-01  0.149609D-02
     15 -0.363920D-01 -0.236121D-01 -0.157064D-01 -0.438486D-01 -0.202299D-02
     16  0.237118D-02  0.411307D-02  0.323125D-02 -0.159046D-02 -0.268576D-01
     17  0.108580D-02  0.141805D-02  0.343442D-02 -0.123304D-02  0.711072D-02
     18 -0.715170D-02 -0.487175D-02  0.715954D-02 -0.330638D-02 -0.802048D-02
     19 -0.692122D-04  0.483300D-02 -0.324159D-02  0.381758D-02 -0.735710D-01
     20  0.103483D-02  0.397451D-02 -0.197000D-02  0.384240D-02  0.163853D-01
     21 -0.391167D-03 -0.247951D-02  0.675966D-02 -0.701551D-04  0.972404D-02
     22  0.605162D-02 -0.172130D-01  0.108724D-01 -0.390762D-02 -0.336735D-03
     23 -0.344054D-02  0.187961D-02 -0.112120D-01  0.116959D-01  0.387925D-02
     24  0.949540D-03  0.171677D-01 -0.819347D-02 -0.304754D-01  0.566100D-02
     25  0.358558D-02 -0.360993D-01 -0.651180D-02 -0.951415D-02 -0.423078D-02
     26  0.130209D-02 -0.258656D-01 -0.395571D-01  0.272481D-02 -0.402997D-03
     27  0.150124D-02  0.132545D-01  0.228106D-01 -0.264504D-01 -0.448323D-02
               11            12            13            14            15 
     11  0.125298D+00
     12 -0.490111D-02  0.139849D+00
     13  0.209438D-02 -0.209931D-02  0.118532D+00
     14 -0.769084D-02 -0.739366D-03  0.329766D-01  0.148778D+00
     15 -0.124875D-02  0.715714D-02  0.191477D-02  0.575395D-02  0.131064D+00
     16  0.248467D-01  0.217228D-01 -0.183000D-01 -0.142913D-01  0.653897D-02
     17 -0.420837D-01 -0.296225D-01  0.416023D-02 -0.516978D-01  0.334066D-01
     18 -0.104113D-01 -0.501816D-01 -0.109823D-01  0.582368D-02 -0.453816D-01
     19 -0.169774D-01  0.155042D-01  0.346434D-02 -0.646000D-02 -0.258657D-03
     20 -0.242221D-01  0.202841D-02 -0.288912D-02 -0.426978D-02 -0.351745D-02
     21  0.126764D-01 -0.256333D-01  0.344552D-02  0.548149D-02  0.501790D-02
     22  0.801032D-02 -0.552332D-03 -0.526093D-01  0.415013D-02  0.193821D-01
     23  0.143650D-02  0.240908D-02 -0.278219D-01 -0.260292D-01  0.448578D-02
     24 -0.410624D-02  0.475367D-02  0.595881D-02 -0.115806D-01 -0.249594D-01
     25  0.437684D-02 -0.438527D-02 -0.146222D-02 -0.736066D-02 -0.388583D-02
     26  0.116840D-02 -0.452724D-03 -0.752630D-03 -0.243734D-03 -0.151249D-02
     27  0.107608D-02  0.866536D-02 -0.277557D-02 -0.340511D-02  0.652454D-02
               16            17            18            19            20 
     16  0.124077D+00
     17 -0.666316D-02  0.141922D+00
     18  0.278175D-01  0.719638D-02  0.170169D+00
     19 -0.350401D-01 -0.223855D-01 -0.815044D-02  0.162062D+00
     20 -0.982157D-02 -0.435356D-01  0.716582D-02  0.119769D-01  0.154700D+00
     21 -0.259709D-01 -0.194764D-01 -0.290670D-01  0.831122D-02 -0.242110D-01
     22 -0.507756D-01  0.206626D-01  0.818537D-02 -0.254199D-01 -0.738519D-02
     23  0.106642D-01 -0.262142D-01 -0.119799D-01  0.201290D-01 -0.473056D-01
     24 -0.266975D-01  0.774617D-02 -0.316356D-01  0.530340D-02  0.651222D-02
     25 -0.899860D-03 -0.158447D-02 -0.882693D-02 -0.410878D-01 -0.529902D-02
     26 -0.207964D-02  0.876238D-02 -0.211734D-02  0.191620D-01 -0.358400D-01
     27 -0.977331D-03 -0.348140D-04 -0.960312D-03 -0.286565D-01  0.880840D-02
               21            22            23            24            25 
     21  0.125150D+00
     22  0.865642D-02  0.175110D+00
     23 -0.135464D-01 -0.225895D-01  0.138571D+00
     24 -0.165844D-01 -0.226194D-01  0.316380D-01  0.141883D+00
     25 -0.118940D-01 -0.311292D-01  0.953111D-02  0.116566D-01  0.184019D+00
     26  0.312204D-01 -0.161820D-01 -0.327775D-01 -0.236251D-01  0.514806D-02
     27 -0.482266D-01 -0.207798D-01 -0.196702D-01 -0.432819D-01  0.234517D-01
               26            27 
     26  0.118245D+00
     27  0.309592D-02  0.131221D+00
 Leave Link  716 at Tue Mar  6 12:16:35 2018, MaxMem=   536870912 cpu:         0.1
 (Enter /share/apps//mg09/l103.exe)

 GradGradGradGradGradGradGradGradGradGradGradGradGradGradGradGradGradGrad
 Berny optimization.
 Search for a local minimum.
 Step number   1 out of a maximum of  100
 All quantities printed in internal units (Hartrees-Bohrs-Radians)
 Second derivative matrix not updated -- first step.
 ITU=  0
     Eigenvalues ---    0.05717   0.08469   0.08648   0.10354   0.11785
     Eigenvalues ---    0.11927   0.12461   0.13285   0.14261   0.14698
     Eigenvalues ---    0.15701   0.18164   0.20038   0.21579   0.22432
     Eigenvalues ---    0.22603   0.24578   0.25509   0.25864   0.27992
     Eigenvalues ---    0.29415
 RFO step:  Lambda=-8.27905522D-03 EMin= 5.71732716D-02
 Linear search not attempted -- first point.
 TrRot=  0.000620 -0.002511  0.000902 -0.000029 -0.000071 -0.000029
 MatCor failed.
 Variable       Old X    -DE/DX   Delta X   Delta X   Delta X     New X
                                 (Linear)    (Quad)   (Total)
    X1        0.23309   0.00012   0.00000   0.01267   0.01327   0.24636
    Y1        3.37616  -0.00829   0.00000  -0.06050  -0.06303   3.31313
    Z1        3.18456  -0.00938   0.00000  -0.06883  -0.06791   3.11665
    X2       -3.59633   0.00756   0.00000   0.04493   0.04532  -3.55101
    Y2       -0.61148   0.00197   0.00000   0.01110   0.00879  -0.60269
    Z2        2.73436  -0.00323   0.00000  -0.03386  -0.03321   2.70115
    X3        1.67683  -0.00310   0.00000  -0.02254  -0.02231   1.65452
    Y3       -2.98394   0.00753   0.00000   0.06988   0.06727  -2.91666
    Z3        3.23509  -0.00811   0.00000  -0.05171  -0.05069   3.18439
    X4       -3.14662   0.00921   0.00000   0.04151   0.04241  -3.10420
    Y4        3.65186  -0.00562   0.00000  -0.04869  -0.05102   3.60084
    Z4       -1.10112   0.00109   0.00000   0.00903   0.00971  -1.09141
    X5       -1.64255   0.00406   0.00000   0.01972   0.02021  -1.62234
    Y5       -4.13715   0.00749   0.00000   0.06421   0.06179  -4.07535
    Z5       -1.39634   0.00083   0.00000   0.01128   0.01207  -1.38427
    X6       -1.26580   0.00877   0.00000   0.04752   0.04849  -1.21730
    Y6        0.14822   0.00195   0.00000   0.01243   0.00999   0.15821
    Z6       -4.90264   0.01191   0.00000   0.07142   0.07224  -4.83040
    X7        2.04950  -0.00673   0.00000  -0.03704  -0.03603   2.01347
    Y7        3.59967  -0.01282   0.00000  -0.06410  -0.06673   3.53294
    Z7       -2.69797   0.00465   0.00000   0.04231   0.04335  -2.65462
    X8        3.47683  -0.01030   0.00000  -0.05720  -0.05648   3.42036
    Y8       -2.01390   0.00824   0.00000   0.04919   0.04648  -1.96742
    Z8       -3.08328   0.00551   0.00000   0.04060   0.04174  -3.04153
    X9        4.88887  -0.00960   0.00000  -0.05549  -0.05488   4.83398
    Y9        1.36090  -0.00046   0.00000  -0.01076  -0.01355   1.34735
    Z9        1.37422  -0.00327   0.00000  -0.02855  -0.02731   1.34691
         Item               Value     Threshold  Converged?
 Maximum Force            0.012819     0.000450     NO 
 RMS     Force            0.006971     0.000300     NO 
 Maximum Displacement     0.072239     0.001800     NO 
 RMS     Displacement     0.045047     0.001200     NO 
 Predicted change in Energy=-4.366611D-03
 Lowest energy point so far.  Saving SCF results.
 GradGradGradGradGradGradGradGradGradGradGradGradGradGradGradGradGradGrad

 Leave Link  103 at Tue Mar  6 12:16:35 2018, MaxMem=   536870912 cpu:         0.2
 (Enter /share/apps//mg09/l202.exe)
                          Input orientation:                          
 ---------------------------------------------------------------------
 Center     Atomic      Atomic             Coordinates (Angstroms)
 Number     Number       Type             X           Y           Z
 ---------------------------------------------------------------------
      1         32           0        0.130366    1.753235    1.649261
      2         83           0       -1.879115   -0.318931    1.429388
      3         50           0        0.875532   -1.543433    1.685109
      4         83           0       -1.642673    1.905480   -0.577547
      5         83           0       -0.858506   -2.156585   -0.732525
      6         32           0       -0.644170    0.083720   -2.556139
      7         32           0        1.065484    1.869550   -1.404763
      8         50           0        1.809974   -1.041114   -1.609509
      9         83           0        2.558033    0.712987    0.712755
 ---------------------------------------------------------------------
                    Distance matrix (angstroms):
                    1          2          3          4          5
     1  Ge   0.000000
     2  Bi   2.894862   0.000000
     3  Sn   3.380025   3.025372   0.000000
     4  Bi   2.850529   3.005278   4.832801   0.000000
     5  Bi   4.683744   3.015374   3.037729   4.139965   0.000000
     6  Ge   4.590487   4.191854   4.790125   2.868910   2.896632
     7  Ge   3.196097   4.636003   4.607802   2.831906   4.512583
     8  Sn   4.609669   4.833820   3.461215   4.654905   3.022278
     9  Bi   2.802272   4.611583   2.977870   4.553335   4.689991
                    6          7          8          9
     6  Ge   0.000000
     7  Ge   2.727228   0.000000
     8  Sn   2.860801   3.011337   0.000000
     9  Bi   4.619064   2.837116   3.004891   0.000000
 Stoichiometry    Bi4Ge3Sn2
 Framework group  C1[X(Bi4Ge3Sn2)]
 Deg. of freedom    21
 Full point group                 C1      NOp   1
 RotChk:  IX=0 Diff= 1.49D-02
 Largest Abelian subgroup         C1      NOp   1
 Largest concise Abelian subgroup C1      NOp   1
                         Standard orientation:                         
 ---------------------------------------------------------------------
 Center     Atomic      Atomic             Coordinates (Angstroms)
 Number     Number       Type             X           Y           Z
 ---------------------------------------------------------------------
      1         32           0        0.143535   -1.745593   -1.655795
      2         83           0       -1.886306    0.305677   -1.427179
      3         50           0        0.855359    1.558497   -1.685239
      4         83           0       -1.623582   -1.920953    0.574018
      5         83           0       -0.880108    2.148438    0.737141
      6         32           0       -0.639682   -0.093878    2.555022
      7         32           0        1.085665   -1.859659    1.396158
      8         50           0        1.801168    1.057876    1.606392
      9         83           0        2.562394   -0.683120   -0.721448
 ---------------------------------------------------------------------
 Rotational constants (GHZ):      0.1023555      0.0902328      0.0819296
 Leave Link  202 at Tue Mar  6 12:16:37 2018, MaxMem=   536870912 cpu:         0.0
 (Enter /share/apps//mg09/l301.exe)
 Standard basis: def2TZVP (5D, 7F)
 Ernie: Thresh=  0.10000D-02 Tol=  0.10000D-05 Strict=F.
 There are   519 symmetry adapted cartesian basis functions of A   symmetry.
 There are   444 symmetry adapted basis functions of A   symmetry.
   444 basis functions,   963 primitive gaussians,   519 cartesian basis functions
   116 alpha electrons      116 beta electrons
       nuclear repulsion energy      3597.8245773455 Hartrees.
 IExCor= 1009 DFT=T Ex+Corr=PBE1PBE ExCW=0 ScaHFX=  0.250000
 ScaDFX=  0.750000  0.750000  1.000000  1.000000 ScalE2=  1.000000  1.000000
 IRadAn=      0 IRanWt=     -1 IRanGd=            0 ICorTp=0 IEmpDi=  4
 NAtoms=    9 NActive=    9 NUniq=    9 SFac= 1.00D+00 NAtFMM=   60 NAOKFM=F Big=F
 Integral buffers will be    131072 words long.
 Raffenetti 2 integral format.
 Two-electron integral symmetry is turned on.
 Leave Link  301 at Tue Mar  6 12:16:37 2018, MaxMem=   536870912 cpu:         0.2
 (Enter /share/apps//mg09/l302.exe)
 NPDir=0 NMtPBC=     1 NCelOv=     1 NCel=       1 NClECP=     1 NCelD=      1
         NCelK=      1 NCelE2=     1 NClLst=     1 CellRange=     0.0.
 One-electron integrals computed using PRISM.
   1 Symmetry operations used in ECPInt.
 ECPInt:  NShTT=   10440 NPrTT=   41973 LenC2=    9697 LenP2D=   27597.
 LDataN:  DoStor=T MaxTD1= 8 Len=  415
 NBasis=   444 RedAO= T EigKep=  1.25D-03  NBF=   444
 NBsUse=   444 1.00D-06 EigRej= -1.00D+00 NBFU=   444
 Precomputing XC quadrature grid using
 IXCGrd= 4 IRadAn=           0 IRanWt=          -1 IRanGd=           0 AccXCQ= 0.00D+00.
 Defaulting to unpruned grid for atomic number  83.
 Defaulting to unpruned grid for atomic number  83.
 Defaulting to unpruned grid for atomic number  50.
 Generated NRdTot=       0 NPtTot=           0 NUsed=           0 NTot=          32
 NSgBfM=   501   503   503   503   503 MxSgAt=     9 MxSgA2=     9.
 Leave Link  302 at Tue Mar  6 12:16:46 2018, MaxMem=   536870912 cpu:        34.3
 (Enter /share/apps//mg09/l303.exe)
 DipDrv:  MaxL=1.
 Leave Link  303 at Tue Mar  6 12:16:46 2018, MaxMem=   536870912 cpu:         0.3
 (Enter /share/apps//mg09/l401.exe)
 Initial guess from the checkpoint file:  "Isomer_01.chk"
 B after Tr=     0.000000    0.000000    0.000000
         Rot=    0.999987   -0.001137   -0.000795   -0.004970 Ang=  -0.59 deg.
 Guess basis will be translated and rotated to current coordinates.
 JPrj=2 DoOrth=T DoCkMO=T.
 Generating alternative initial guess.
 ExpMin= 4.62D-02 ExpMax= 4.66D+05 ExpMxC= 4.50D+03 IAcc=2 IRadAn=         4 AccDes= 0.00D+00
 Harris functional with IExCor= 1009 and IRadAn=       4 diagonalized for initial guess.
 HarFok:  IExCor= 1009 AccDes= 0.00D+00 IRadAn=         4 IDoV= 1 UseB2=F ITyADJ=14
 ICtDFT=  3500011 ScaDFX=  1.000000  1.000000  1.000000  1.000000
 Defaulting to unpruned grid for atomic number  83.
 Defaulting to unpruned grid for atomic number  83.
 Defaulting to unpruned grid for atomic number  83.
 Defaulting to unpruned grid for atomic number  83.
 FoFCou: FMM=F IPFlag=           0 FMFlag=      100000 FMFlg1=           0
         NFxFlg=           0 DoJE=T BraDBF=F KetDBF=T FulRan=T
         wScrn=  0.000000 ICntrl=     500 IOpCl=  0 I1Cent=   200000004 NGrid=           0
         NMat0=    1 NMatS0=      1 NMatT0=    0 NMatD0=    1 NMtDS0=    0 NMtDT0=    0
 Petite list used in FoFCou.
 Harris En= -7518.61570445874    
 Leave Link  401 at Tue Mar  6 12:16:50 2018, MaxMem=   536870912 cpu:        13.4
 (Enter /share/apps//mg09/l502.exe)
 Closed shell SCF:
 Using DIIS extrapolation, IDIIS=  1040.
 Integral symmetry usage will be decided dynamically.
 IVT=     1410107 IEndB=     1410107 NGot=   536870912 MDV=   536322046
 LenX=   536322046 LenY=   536052166
 Requested convergence on RMS density matrix=1.00D-08 within 768 cycles.
 Requested convergence on MAX density matrix=1.00D-06.
 Requested convergence on             energy=1.00D-06.
 No special actions if energy rises.
 Fock matrices will be formed incrementally for  20 cycles.

 Cycle   1  Pass 1  IDiag  1:
 FoFJK:  IHMeth= 1 ICntrl=       0 DoSepK=F KAlg= 0 I1Cent=   0 FoldK=F
 IRaf= 880000000 NMat=   1 IRICut=       1 DoRegI=T DoRafI=F ISym2E= 0.
 FoFCou: FMM=F IPFlag=           0 FMFlag=      100000 FMFlg1=           0
         NFxFlg=           0 DoJE=F BraDBF=F KetDBF=F FulRan=T
         wScrn=  0.000000 ICntrl=       0 IOpCl=  0 I1Cent=           0 NGrid=           0
         NMat0=    1 NMatS0=      1 NMatT0=    0 NMatD0=    1 NMtDS0=    0 NMtDT0=    0
 Symmetry not used in FoFCou.
 Defaulting to unpruned grid for atomic number  83.
 Defaulting to unpruned grid for atomic number  83.
 Defaulting to unpruned grid for atomic number  83.
 Defaulting to unpruned grid for atomic number  83.
 E= -7517.82410057811    
 DIIS: error= 5.09D-03 at cycle   1 NSaved=   1.
 NSaved= 1 IEnMin= 1 EnMin= -7517.82410057811     IErMin= 1 ErrMin= 5.09D-03
 ErrMax= 5.09D-03  0.00D+00 EMaxC= 1.00D-01 BMatC= 9.19D-03 BMatP= 9.19D-03
 IDIUse=3 WtCom= 9.49D-01 WtEn= 5.09D-02
 Coeff-Com:  0.100D+01
 Coeff-En:   0.100D+01
 Coeff:      0.100D+01
 Gap=     7.176 Goal=   None    Shift=    0.000
 GapD=    7.176 DampG=2.000 DampE=1.000 DampFc=2.0000 IDamp=-1.
 RMSDP=1.88D-04 MaxDP=4.98D-03              OVMax= 2.38D-02

 Cycle   2  Pass 1  IDiag  1:
 RMSU=  1.87D-04    CP:  1.00D+00
 E= -7517.82419151765     Delta-E=       -0.000090939546 Rises=F Damp=F
 DIIS: error= 1.47D-03 at cycle   2 NSaved=   2.
 NSaved= 2 IEnMin= 2 EnMin= -7517.82419151765     IErMin= 2 ErrMin= 1.47D-03
 ErrMax= 1.47D-03  0.00D+00 EMaxC= 1.00D-01 BMatC= 1.66D-03 BMatP= 9.19D-03
 IDIUse=3 WtCom= 9.85D-01 WtEn= 1.47D-02
 Coeff-Com:  0.191D+00 0.809D+00
 Coeff-En:   0.475D+00 0.525D+00
 Coeff:      0.195D+00 0.805D+00
 Gap=     0.124 Goal=   None    Shift=    0.000
 RMSDP=2.09D-04 MaxDP=8.48D-03 DE=-9.09D-05 OVMax= 1.61D-02

 Cycle   3  Pass 1  IDiag  1:
 RMSU=  1.92D-04    CP:  9.99D-01  5.87D-01
 E= -7517.82234156945     Delta-E=        0.001849948199 Rises=F Damp=F
 DIIS: error= 2.16D-03 at cycle   3 NSaved=   3.
 NSaved= 3 IEnMin= 2 EnMin= -7517.82419151765     IErMin= 2 ErrMin= 1.47D-03
 ErrMax= 2.16D-03  0.00D+00 EMaxC= 1.00D-01 BMatC= 3.88D-03 BMatP= 1.66D-03
 IDIUse=3 WtCom= 1.77D-01 WtEn= 8.23D-01
 Coeff-Com:  0.493D-02 0.604D+00 0.391D+00
 Coeff-En:   0.000D+00 0.660D+00 0.340D+00
 Coeff:      0.873D-03 0.650D+00 0.349D+00
 Gap=     0.126 Goal=   None    Shift=    0.000
 RMSDP=1.12D-04 MaxDP=5.00D-03 DE= 1.85D-03 OVMax= 1.09D-02

 Cycle   4  Pass 1  IDiag  1:
 RMSU=  3.51D-05    CP:  9.99D-01  8.30D-01  5.04D-01
 E= -7517.82536379987     Delta-E=       -0.003022230418 Rises=F Damp=F
 DIIS: error= 3.80D-04 at cycle   4 NSaved=   4.
 NSaved= 4 IEnMin= 4 EnMin= -7517.82536379987     IErMin= 4 ErrMin= 3.80D-04
 ErrMax= 3.80D-04  0.00D+00 EMaxC= 1.00D-01 BMatC= 1.60D-04 BMatP= 1.66D-03
 IDIUse=3 WtCom= 9.96D-01 WtEn= 3.80D-03
 Coeff-Com: -0.280D-03 0.417D+00 0.223D+00 0.361D+00
 Coeff-En:   0.000D+00 0.515D-01 0.000D+00 0.948D+00
 Coeff:     -0.279D-03 0.416D+00 0.222D+00 0.363D+00
 Gap=     0.125 Goal=   None    Shift=    0.000
 RMSDP=3.47D-05 MaxDP=1.54D-03 DE=-3.02D-03 OVMax= 3.29D-03

 Cycle   5  Pass 1  IDiag  1:
 RMSU=  1.52D-05    CP:  9.99D-01  8.82D-01  4.49D-01  2.19D-01
 E= -7517.82548247476     Delta-E=       -0.000118674889 Rises=F Damp=F
 DIIS: error= 9.95D-05 at cycle   5 NSaved=   5.
 NSaved= 5 IEnMin= 5 EnMin= -7517.82548247476     IErMin= 5 ErrMin= 9.95D-05
 ErrMax= 9.95D-05  0.00D+00 EMaxC= 1.00D-01 BMatC= 1.68D-05 BMatP= 1.60D-04
 IDIUse=1 WtCom= 1.00D+00 WtEn= 0.00D+00
 Coeff-Com: -0.930D-03 0.218D+00 0.104D+00 0.283D+00 0.396D+00
 Coeff:     -0.930D-03 0.218D+00 0.104D+00 0.283D+00 0.396D+00
 Gap=     0.126 Goal=   None    Shift=    0.000
 RMSDP=1.14D-05 MaxDP=7.01D-04 DE=-1.19D-04 OVMax= 1.11D-03

 Cycle   6  Pass 1  IDiag  1:
 RMSU=  3.78D-06    CP:  9.99D-01  8.90D-01  4.44D-01  4.51D-01  5.72D-01
 E= -7517.82550209798     Delta-E=       -0.000019623221 Rises=F Damp=F
 DIIS: error= 1.13D-05 at cycle   6 NSaved=   6.
 NSaved= 6 IEnMin= 6 EnMin= -7517.82550209798     IErMin= 6 ErrMin= 1.13D-05
 ErrMax= 1.13D-05  0.00D+00 EMaxC= 1.00D-01 BMatC= 2.75D-07 BMatP= 1.68D-05
 IDIUse=1 WtCom= 1.00D+00 WtEn= 0.00D+00
 Coeff-Com: -0.303D-03 0.414D-01 0.198D-01 0.706D-01 0.154D+00 0.715D+00
 Coeff:     -0.303D-03 0.414D-01 0.198D-01 0.706D-01 0.154D+00 0.715D+00
 Gap=     0.126 Goal=   None    Shift=    0.000
 RMSDP=2.30D-06 MaxDP=1.19D-04 DE=-1.96D-05 OVMax= 3.26D-04

 Cycle   7  Pass 1  IDiag  1:
 RMSU=  1.62D-06    CP:  9.99D-01  8.94D-01  4.48D-01  4.41D-01  6.44D-01
                    CP:  1.01D+00
 E= -7517.82550230235     Delta-E=       -0.000000204365 Rises=F Damp=F
 DIIS: error= 6.27D-06 at cycle   7 NSaved=   7.
 NSaved= 7 IEnMin= 7 EnMin= -7517.82550230235     IErMin= 7 ErrMin= 6.27D-06
 ErrMax= 6.27D-06  0.00D+00 EMaxC= 1.00D-01 BMatC= 1.15D-07 BMatP= 2.75D-07
 IDIUse=1 WtCom= 1.00D+00 WtEn= 0.00D+00
 Coeff-Com: -0.492D-04-0.879D-02-0.339D-02 0.139D-02 0.331D-01 0.460D+00
 Coeff-Com:  0.518D+00
 Coeff:     -0.492D-04-0.879D-02-0.339D-02 0.139D-02 0.331D-01 0.460D+00
 Coeff:      0.518D+00
 Gap=     0.126 Goal=   None    Shift=    0.000
 RMSDP=1.31D-06 MaxDP=9.03D-05 DE=-2.04D-07 OVMax= 1.62D-04

 Cycle   8  Pass 1  IDiag  1:
 RMSU=  8.19D-07    CP:  9.99D-01  8.95D-01  4.49D-01  4.46D-01  6.58D-01
                    CP:  1.16D+00  5.55D-01
 E= -7517.82550236300     Delta-E=       -0.000000060654 Rises=F Damp=F
 DIIS: error= 5.99D-06 at cycle   8 NSaved=   8.
 NSaved= 8 IEnMin= 8 EnMin= -7517.82550236300     IErMin= 8 ErrMin= 5.99D-06
 ErrMax= 5.99D-06  0.00D+00 EMaxC= 1.00D-01 BMatC= 5.39D-08 BMatP= 1.15D-07
 IDIUse=1 WtCom= 1.00D+00 WtEn= 0.00D+00
 Coeff-Com:  0.213D-04-0.162D-01-0.694D-02-0.130D-01-0.453D-02 0.244D+00
 Coeff-Com:  0.439D+00 0.358D+00
 Coeff:      0.213D-04-0.162D-01-0.694D-02-0.130D-01-0.453D-02 0.244D+00
 Coeff:      0.439D+00 0.358D+00
 Gap=     0.126 Goal=   None    Shift=    0.000
 RMSDP=7.22D-07 MaxDP=2.74D-05 DE=-6.07D-08 OVMax= 8.03D-05

 Cycle   9  Pass 1  IDiag  1:
 RMSU=  3.38D-07    CP:  9.99D-01  8.95D-01  4.50D-01  4.50D-01  6.63D-01
                    CP:  1.18D+00  6.87D-01  3.20D-01
 E= -7517.82550242519     Delta-E=       -0.000000062191 Rises=F Damp=F
 DIIS: error= 1.41D-06 at cycle   9 NSaved=   9.
 NSaved= 9 IEnMin= 9 EnMin= -7517.82550242519     IErMin= 9 ErrMin= 1.41D-06
 ErrMax= 1.41D-06  0.00D+00 EMaxC= 1.00D-01 BMatC= 4.26D-09 BMatP= 5.39D-08
 IDIUse=1 WtCom= 1.00D+00 WtEn= 0.00D+00
 Coeff-Com:  0.224D-04-0.969D-02-0.413D-02-0.869D-02-0.827D-02 0.979D-01
 Coeff-Com:  0.226D+00 0.257D+00 0.450D+00
 Coeff:      0.224D-04-0.969D-02-0.413D-02-0.869D-02-0.827D-02 0.979D-01
 Coeff:      0.226D+00 0.257D+00 0.450D+00
 Gap=     0.126 Goal=   None    Shift=    0.000
 RMSDP=2.17D-07 MaxDP=1.09D-05 DE=-6.22D-08 OVMax= 2.85D-05

 Cycle  10  Pass 1  IDiag  1:
 RMSU=  1.08D-07    CP:  9.99D-01  8.96D-01  4.50D-01  4.51D-01  6.67D-01
                    CP:  1.18D+00  7.05D-01  4.82D-01  7.01D-01
 E= -7517.82550243024     Delta-E=       -0.000000005053 Rises=F Damp=F
 DIIS: error= 2.86D-07 at cycle  10 NSaved=  10.
 NSaved=10 IEnMin=10 EnMin= -7517.82550243024     IErMin=10 ErrMin= 2.86D-07
 ErrMax= 2.86D-07  0.00D+00 EMaxC= 1.00D-01 BMatC= 2.01D-10 BMatP= 4.26D-09
 IDIUse=1 WtCom= 1.00D+00 WtEn= 0.00D+00
 Coeff-Com:  0.523D-05-0.138D-02-0.534D-03-0.147D-02-0.295D-02 0.112D-02
 Coeff-Com:  0.242D-01 0.461D-01 0.198D+00 0.737D+00
 Coeff:      0.523D-05-0.138D-02-0.534D-03-0.147D-02-0.295D-02 0.112D-02
 Coeff:      0.242D-01 0.461D-01 0.198D+00 0.737D+00
 Gap=     0.126 Goal=   None    Shift=    0.000
 RMSDP=8.62D-08 MaxDP=4.06D-06 DE=-5.05D-09 OVMax= 1.00D-05

 Cycle  11  Pass 1  IDiag  1:
 RMSU=  6.77D-08    CP:  9.99D-01  8.96D-01  4.50D-01  4.51D-01  6.68D-01
                    CP:  1.19D+00  7.11D-01  4.88D-01  7.98D-01  8.31D-01
 E= -7517.82550243064     Delta-E=       -0.000000000400 Rises=F Damp=F
 DIIS: error= 5.58D-07 at cycle  11 NSaved=  11.
 NSaved=11 IEnMin=11 EnMin= -7517.82550243064     IErMin=10 ErrMin= 2.86D-07
 ErrMax= 5.58D-07  0.00D+00 EMaxC= 1.00D-01 BMatC= 2.99D-10 BMatP= 2.01D-10
 IDIUse=1 WtCom= 1.00D+00 WtEn= 0.00D+00
 Coeff-Com:  0.622D-06 0.470D-03 0.254D-03 0.225D-03-0.109D-02-0.151D-01
 Coeff-Com: -0.172D-01-0.352D-02 0.100D+00 0.620D+00 0.316D+00
 Coeff:      0.622D-06 0.470D-03 0.254D-03 0.225D-03-0.109D-02-0.151D-01
 Coeff:     -0.172D-01-0.352D-02 0.100D+00 0.620D+00 0.316D+00
 Gap=     0.126 Goal=   None    Shift=    0.000
 RMSDP=5.49D-08 MaxDP=2.30D-06 DE=-4.00D-10 OVMax= 7.19D-06

 Cycle  12  Pass 1  IDiag  1:
 RMSU=  2.10D-08    CP:  9.99D-01  8.96D-01  4.50D-01  4.51D-01  6.68D-01
                    CP:  1.19D+00  7.13D-01  4.88D-01  8.10D-01  1.04D+00
                    CP:  3.61D-01
 E= -7517.82550243077     Delta-E=       -0.000000000129 Rises=F Damp=F
 DIIS: error= 8.27D-08 at cycle  12 NSaved=  12.
 NSaved=12 IEnMin=12 EnMin= -7517.82550243077     IErMin=12 ErrMin= 8.27D-08
 ErrMax= 8.27D-08  0.00D+00 EMaxC= 1.00D-01 BMatC= 1.16D-11 BMatP= 2.01D-10
 IDIUse=1 WtCom= 1.00D+00 WtEn= 0.00D+00
 Coeff-Com: -0.628D-06 0.555D-03 0.262D-03 0.407D-03-0.753D-04-0.938D-02
 Coeff-Com: -0.158D-01-0.126D-01 0.266D-01 0.246D+00 0.195D+00 0.569D+00
 Coeff:     -0.628D-06 0.555D-03 0.262D-03 0.407D-03-0.753D-04-0.938D-02
 Coeff:     -0.158D-01-0.126D-01 0.266D-01 0.246D+00 0.195D+00 0.569D+00
 Gap=     0.126 Goal=   None    Shift=    0.000
 RMSDP=1.25D-08 MaxDP=9.18D-07 DE=-1.29D-10 OVMax= 1.41D-06

 Cycle  13  Pass 1  IDiag  1:
 RMSU=  5.94D-09    CP:  9.99D-01  8.96D-01  4.50D-01  4.51D-01  6.68D-01
                    CP:  1.19D+00  7.13D-01  4.90D-01  8.27D-01  1.04D+00
                    CP:  4.62D-01  7.81D-01
 E= -7517.82550243090     Delta-E=       -0.000000000129 Rises=F Damp=F
 DIIS: error= 1.91D-08 at cycle  13 NSaved=  13.
 NSaved=13 IEnMin=13 EnMin= -7517.82550243090     IErMin=13 ErrMin= 1.91D-08
 ErrMax= 1.91D-08  0.00D+00 EMaxC= 1.00D-01 BMatC= 9.74D-13 BMatP= 1.16D-11
 IDIUse=1 WtCom= 1.00D+00 WtEn= 0.00D+00
 Coeff-Com: -0.422D-06 0.253D-03 0.114D-03 0.211D-03 0.982D-04-0.335D-02
 Coeff-Com: -0.664D-02-0.697D-02 0.212D-02 0.596D-01 0.650D-01 0.299D+00
 Coeff-Com:  0.591D+00
 Coeff:     -0.422D-06 0.253D-03 0.114D-03 0.211D-03 0.982D-04-0.335D-02
 Coeff:     -0.664D-02-0.697D-02 0.212D-02 0.596D-01 0.650D-01 0.299D+00
 Coeff:      0.591D+00
 Gap=     0.126 Goal=   None    Shift=    0.000
 RMSDP=3.90D-09 MaxDP=2.29D-07 DE=-1.29D-10 OVMax= 5.66D-07

 SCF Done:  E(RPBE1PBE) =  -7517.82550243     A.U. after   13 cycles
            NFock= 13  Conv=0.39D-08     -V/T= 2.1284
 KE= 6.662156300889D+03 PE=-2.478694911182D+04 EE= 7.009142731155D+03
 Leave Link  502 at Tue Mar  6 12:28:07 2018, MaxMem=   536870912 cpu:      2690.6
 (Enter /share/apps//mg09/l701.exe)
 Compute integral first derivatives.
 ... and contract with generalized density number  0.
   1 Symmetry operations used in ECPInt.
 ECPInt:  NShTT=   10440 NPrTT=   41973 LenC2=    9697 LenP2D=   27597.
 LDataN:  DoStor=T MaxTD1= 9 Len=  602
 Leave Link  701 at Tue Mar  6 12:28:30 2018, MaxMem=   536870912 cpu:        83.7
 (Enter /share/apps//mg09/l702.exe)
 L702 exits ... SP integral derivatives will be done elsewhere.
 Leave Link  702 at Tue Mar  6 12:28:30 2018, MaxMem=   536870912 cpu:         0.1
 (Enter /share/apps//mg09/l703.exe)
 Compute integral first derivatives, UseDBF=F ICtDFT=           0.
 Integral derivatives from FoFJK, PRISM(SPDF).
 Calling FoFJK, ICntrl=      2127 FMM=F ISym2X=0 I1Cent= 0 IOpClX= 0 NMat=1 NMatS=1 NMatT=0.
 FoFJK:  IHMeth= 1 ICntrl=    2127 DoSepK=F KAlg= 0 I1Cent=   0 FoldK=F
 IRaf=         0 NMat=   1 IRICut=       1 DoRegI=T DoRafI=F ISym2E= 0.
 FoFCou: FMM=F IPFlag=           0 FMFlag=      100000 FMFlg1=         800
         NFxFlg=           0 DoJE=F BraDBF=F KetDBF=F FulRan=T
         wScrn=  0.000000 ICntrl=    2127 IOpCl=  0 I1Cent=           0 NGrid=           0
         NMat0=    1 NMatS0=      1 NMatT0=    0 NMatD0=    1 NMtDS0=    0 NMtDT0=    0
 Symmetry not used in FoFCou.
 Defaulting to unpruned grid for atomic number  83.
 Defaulting to unpruned grid for atomic number  83.
 Defaulting to unpruned grid for atomic number  83.
 Defaulting to unpruned grid for atomic number  83.
 Leave Link  703 at Tue Mar  6 12:33:30 2018, MaxMem=   536870912 cpu:      1126.6
 (Enter /share/apps//mg09/l716.exe)
 Dipole        =-1.16060334D-01 2.55672417D-01-4.63950213D-01
 ***** Axes restored to original set *****
 -------------------------------------------------------------------
 Center     Atomic                   Forces (Hartrees/Bohr)
 Number     Number              X              Y              Z
 -------------------------------------------------------------------
      1       32          -0.000242878   -0.003945117   -0.004222376
      2       83           0.001756188    0.000597931    0.001710538
      3       50          -0.001119636    0.002849715   -0.003492325
      4       83           0.003679828   -0.000074607   -0.000894247
      5       83           0.001351429    0.001130325   -0.001361188
      6       32           0.005588384    0.001453036    0.005479450
      7       32          -0.004132533   -0.007325168    0.001469392
      8       50          -0.005316962    0.003889465    0.001808153
      9       83          -0.001563821    0.001424419   -0.000497397
 -------------------------------------------------------------------
 Cartesian Forces:  Max     0.007325168 RMS     0.003152560
 Leave Link  716 at Tue Mar  6 12:33:30 2018, MaxMem=   536870912 cpu:         0.1
 (Enter /share/apps//mg09/l103.exe)

 GradGradGradGradGradGradGradGradGradGradGradGradGradGradGradGradGradGrad
 Berny optimization.
 Search for a local minimum.
 Step number   2 out of a maximum of  100
 All quantities printed in internal units (Hartrees-Bohrs-Radians)
 Update second derivatives using D2CorN and points    1    2
 DE= -5.81D-03 DEPred=-4.37D-03 R= 1.33D+00
 TightC=F SS=  1.41D+00  RLast= 2.34D-01 DXNew= 5.0454D-01 7.0221D-01
 Trust test= 1.33D+00 RLast= 2.34D-01 DXMaxT set to 5.05D-01
 ITU=  1  0
     Eigenvalues ---    0.05719   0.07529   0.08656   0.10290   0.10515
     Eigenvalues ---    0.11923   0.12456   0.12706   0.13676   0.14279
     Eigenvalues ---    0.15027   0.18196   0.19737   0.21581   0.22358
     Eigenvalues ---    0.22580   0.24579   0.25482   0.25844   0.27994
     Eigenvalues ---    0.29360
 RFO step:  Lambda=-5.59680570D-04 EMin= 5.71897854D-02
 Quartic linear search produced a step of  0.56132.
 TrRot=  0.000108 -0.000309 -0.000074 -0.240829 -0.000101  0.240831
 Variable       Old X    -DE/DX   Delta X   Delta X   Delta X     New X
                                 (Linear)    (Quad)   (Total)
    X1        0.24636  -0.00024   0.00745  -0.00466   0.00259   0.24894
    Y1        3.31313  -0.00395  -0.03538  -0.00310  -0.03871   3.27442
    Z1        3.11665  -0.00422  -0.03812  -0.00430  -0.04255   3.07411
    X2       -3.55101   0.00176   0.02544  -0.00797   0.01732  -3.53370
    Y2       -0.60269   0.00060   0.00493  -0.00163   0.00305  -0.59964
    Z2        2.70115   0.00171  -0.01864   0.02929   0.01024   2.71139
    X3        1.65452  -0.00112  -0.01252   0.00321  -0.00951   1.64501
    Y3       -2.91666   0.00285   0.03776  -0.00500   0.03254  -2.88413
    Z3        3.18439  -0.00349  -0.02846  -0.00585  -0.03415   3.15025
    X4       -3.10420   0.00368   0.02381   0.00216   0.02617  -3.07803
    Y4        3.60084  -0.00007  -0.02864   0.01499  -0.01399   3.58685
    Z4       -1.09141  -0.00089   0.00545  -0.00856  -0.00357  -1.09498
    X5       -1.62234   0.00135   0.01134  -0.00606   0.00553  -1.61681
    Y5       -4.07535   0.00113   0.03469  -0.01042   0.02392  -4.05143
    Z5       -1.38427  -0.00136   0.00677  -0.01303  -0.00639  -1.39066
    X6       -1.21730   0.00559   0.02722   0.01803   0.04582  -1.17148
    Y6        0.15821   0.00145   0.00561   0.00494   0.01012   0.16833
    Z6       -4.83040   0.00548   0.04055   0.00404   0.04439  -4.78601
    X7        2.01347  -0.00413  -0.02022  -0.00710  -0.02696   1.98651
    Y7        3.53294  -0.00733  -0.03746  -0.01764  -0.05547   3.47747
    Z7       -2.65462   0.00147   0.02433  -0.00321   0.02116  -2.63346
    X8        3.42036  -0.00532  -0.03170  -0.00775  -0.03904   3.38131
    Y8       -1.96742   0.00389   0.02609   0.00507   0.03079  -1.93663
    Z8       -3.04153   0.00181   0.02343  -0.00154   0.02219  -3.01934
    X9        4.83398  -0.00156  -0.03081   0.00891  -0.02193   4.81206
    Y9        1.34735   0.00142  -0.00761   0.01562   0.00775   1.35509
    Z9        1.34691  -0.00050  -0.01533   0.00363  -0.01133   1.33558
         Item               Value     Threshold  Converged?
 Maximum Force            0.007325     0.000450     NO 
 RMS     Force            0.003153     0.000300     NO 
 Maximum Displacement     0.055466     0.001800     NO 
 RMS     Displacement     0.026971     0.001200     NO 
[...]
      X        X   X                  X        X     X X  X           X                                                              
      X        X   X                  X        X     X X  X                                                                          
      X        X   X                  X        X       X  X                                                                          
      X        X   X                  X        X       X  X                                                                          
      X        X   X                  X        X       X  X                                                                          
      X        X   X                  X        X       X                                                                             
      X        X   X                  X        X       X                                                                             
      X        X   X                           X       X                                                                             
      X        X   X                           X       X                                                                             
      X            X                           X       X                                                                             
      X            X                           X       X                                                                             
      X            X                                                                                                                 
                   X                                                                                                                 
                   X                                                                                                                 
                   X                                                                                                                 
 
 ***** Axes restored to original set *****
 -------------------------------------------------------------------
 Center     Atomic                   Forces (Hartrees/Bohr)
 Number     Number              X              Y              Z
 -------------------------------------------------------------------
      1       32          -0.000020798   -0.000004012    0.000041868
      2       83           0.000022339    0.000006012    0.000045754
      3       50           0.000071884   -0.000038977   -0.000123696
      4       83           0.000029941   -0.000026228    0.000025319
      5       83          -0.000102277    0.000048703   -0.000048290
      6       32           0.000027162    0.000021755   -0.000032223
      7       32           0.000007342   -0.000010750   -0.000077731
      8       50          -0.000016849   -0.000085462    0.000179149
      9       83          -0.000018745    0.000088959   -0.000010151
 -------------------------------------------------------------------
 Cartesian Forces:  Max     0.000179149 RMS     0.000061076
 Force constants in Cartesian coordinates: 
                1             2             3             4             5 
      1  0.739792D-01
      2  0.331425D-03  0.411099D-01
      3  0.580810D-02  0.166062D-01  0.478884D-01
      4 -0.193769D-01 -0.149529D-01  0.285958D-02  0.713878D-01
      5 -0.162777D-01 -0.170254D-01 -0.291848D-02  0.571245D-03  0.679350D-01
      6  0.104305D-02 -0.347232D-02  0.958516D-04 -0.208116D-01 -0.493558D-02
      7  0.121337D-02  0.149972D-02 -0.257704D-02 -0.313809D-01  0.115816D-01
      8  0.144338D-02 -0.484473D-02  0.544934D-04  0.113086D-01 -0.603676D-02
      9 -0.205991D-02 -0.200356D-02 -0.237877D-02  0.783697D-03  0.320656D-02
     10 -0.180146D-01  0.541972D-02 -0.182837D-01 -0.527926D-02 -0.498764D-03
     11  0.398014D-02 -0.112471D-02 -0.287349D-03 -0.142120D-02 -0.252388D-01
     12 -0.181678D-01  0.321927D-03 -0.245394D-01  0.331680D-02  0.234153D-01
     13  0.537022D-03  0.233362D-02 -0.165412D-02 -0.902335D-02  0.640472D-02
     14  0.512088D-04 -0.398691D-02  0.103088D-02  0.634653D-02 -0.178906D-01
     15 -0.456557D-02 -0.640376D-02 -0.178068D-02  0.121304D-01 -0.199485D-01
     16 -0.517494D-03 -0.190128D-02  0.147655D-02  0.107602D-02 -0.263890D-04
     17 -0.323960D-02 -0.131545D-02 -0.608799D-02  0.845316D-04  0.610016D-04
     18 -0.183121D-02  0.128669D-02 -0.664004D-02 -0.172568D-02 -0.584433D-03
     19 -0.289008D-03 -0.299861D-02  0.123911D-02 -0.102715D-02 -0.738310D-02
     20 -0.292032D-02 -0.189619D-02 -0.187729D-02 -0.122664D-02 -0.255740D-02
     21  0.144168D-02  0.697487D-03 -0.230231D-02  0.361436D-03  0.466931D-02
     22  0.152884D-02 -0.108194D-02  0.138359D-03 -0.336947D-02  0.527423D-02
     23  0.315585D-02 -0.458174D-02 -0.715508D-03  0.339266D-03  0.108564D-02
     24  0.601816D-02 -0.186763D-02 -0.415681D-02  0.870607D-03 -0.274803D-02
     25 -0.390605D-01  0.113503D-01  0.109932D-01 -0.300685D-02  0.354083D-03
     26  0.134756D-01 -0.633479D-02 -0.580493D-02 -0.104943D-02 -0.332742D-03
     27  0.123136D-01 -0.516502D-02 -0.618622D-02  0.221469D-02 -0.156177D-03
                6             7             8             9            10 
      6  0.520512D-01
      7 -0.376092D-03  0.611404D-01
      8  0.305206D-02  0.539227D-02  0.453944D-01
      9  0.823900D-03  0.116941D-01 -0.161729D-01  0.455258D-01
     10  0.184852D-02  0.693882D-03 -0.611886D-03 -0.990975D-03  0.779436D-01
     11  0.239403D-01  0.234900D-02 -0.376029D-02 -0.967359D-03 -0.211293D-01
     12 -0.188408D-01 -0.634975D-02  0.371153D-02 -0.168902D-02 -0.413567D-03
     13  0.113529D-01 -0.118726D-01 -0.692078D-02 -0.157199D-01  0.154390D-02
     14 -0.209324D-01 -0.588785D-02 -0.432579D-02 -0.269843D-02 -0.265562D-02
     15 -0.216885D-01 -0.155089D-01 -0.330501D-02 -0.214087D-01  0.567617D-03
     16  0.498403D-02 -0.270472D-02  0.124086D-02 -0.952511D-03 -0.873564D-02
     17  0.162276D-02  0.302245D-02  0.734671D-03  0.483822D-02  0.103219D-01
     18 -0.410517D-02 -0.457694D-03 -0.191600D-02 -0.436060D-02  0.673890D-02
     19  0.232006D-02  0.114605D-02  0.405590D-02  0.196634D-03 -0.399768D-01
     20 -0.348952D-03 -0.134159D-02 -0.433908D-02  0.135969D-02  0.707024D-02
     21 -0.431195D-02  0.468910D-02  0.371672D-02 -0.357166D-02  0.100753D-01
     22  0.845301D-03 -0.139934D-02  0.190000D-02  0.223887D-02 -0.468789D-02
     23  0.182264D-02  0.219208D-02  0.641816D-03  0.288339D-02  0.496471D-03
     24 -0.284257D-02  0.301533D-02  0.173539D-02 -0.751014D-02  0.783400D-03
     25 -0.120626D-02 -0.168362D-01 -0.178084D-01  0.480992D-02 -0.348718D-02
     26 -0.748478D-03 -0.188077D-01 -0.234643D-01  0.955435D-02  0.158719D-02
     27 -0.118192D-02  0.587091D-02  0.912369D-02 -0.543081D-02 -0.325484D-03
               11            12            13            14            15 
     11  0.554805D-01
     12 -0.118201D-01  0.680801D-01
     13  0.416395D-02  0.597624D-03  0.558018D-01
     14 -0.589679D-02 -0.750728D-03  0.184943D-01  0.659220D-01
     15  0.249782D-03 -0.413645D-03 -0.395037D-02  0.112238D-01  0.635341D-01
     16  0.993310D-02  0.792684D-02 -0.351079D-02 -0.386800D-02 -0.353036D-03
     17 -0.153910D-01 -0.170511D-01 -0.439197D-02 -0.215679D-01  0.159595D-01
     18 -0.137537D-01 -0.177644D-01 -0.244508D-03  0.129974D-01 -0.144174D-01
     19  0.337419D-02  0.119517D-01 -0.434994D-02  0.938031D-04  0.126280D-02
     20 -0.489083D-04  0.214836D-02 -0.145517D-02 -0.545432D-02  0.347104D-02
     21  0.164078D-02 -0.198940D-02  0.108160D-02 -0.420084D-03 -0.179506D-02
     22  0.223223D-03  0.243142D-02 -0.279674D-01 -0.130530D-01  0.104325D-01
     23 -0.359944D-02 -0.256848D-02 -0.154947D-01 -0.628100D-02  0.111234D-02
     24  0.443342D-04 -0.218093D-02  0.830248D-02  0.536772D-03 -0.267859D-02
     25 -0.147314D-02 -0.129320D-02 -0.115862D-02  0.478612D-03 -0.154200D-04
     26 -0.420611D-03  0.259321D-02 -0.313392D-02 -0.518697D-03 -0.235916D-02
     27  0.953290D-03 -0.662578D-03  0.234235D-03 -0.987167D-03  0.648393D-03
               16            17            18            19            20 
     16  0.506799D-01
     17 -0.528129D-02  0.598805D-01
     18  0.143811D-01  0.495623D-02  0.646308D-01
     19 -0.111344D-01 -0.152563D-01 -0.857011D-02  0.744609D-01
     20 -0.119207D-01 -0.148876D-01 -0.423451D-02  0.276947D-02  0.571483D-01
     21 -0.118375D-01 -0.804751D-02 -0.852710D-02  0.850582D-02 -0.118247D-01
     22 -0.229724D-01  0.139881D-01 -0.821170D-02 -0.320427D-02  0.306623D-02
     23  0.116348D-01 -0.423310D-02  0.134407D-02  0.680672D-02 -0.213843D-01
     24 -0.121452D-01  0.308425D-02 -0.567204D-02  0.215792D-02  0.455113D-03
     25 -0.218055D-02  0.752126D-03 -0.791083D-04 -0.156254D-01  0.595854D-02
     26  0.188922D-03 -0.328118D-02 -0.957212D-04  0.853789D-02 -0.658054D-02
     27 -0.348028D-02  0.725660D-03 -0.314407D-02 -0.190639D-01  0.108513D-01
               21            22            23            24            25 
     21  0.426016D-01
     22  0.268709D-02  0.686578D-01
     23 -0.190010D-02 -0.277694D-02  0.510063D-01
     24  0.212743D-02 -0.166291D-02  0.161220D-01  0.437236D-01
     25 -0.170045D-01 -0.658595D-02 -0.635352D-02 -0.733975D-02  0.879412D-01
     26  0.114681D-01 -0.753992D-02 -0.126542D-01 -0.173622D-01  0.674140D-02
     27 -0.222315D-01 -0.889889D-02 -0.181003D-01 -0.208100D-01  0.111352D-01
               26            27 
     26  0.535870D-01
     27  0.275479D-02  0.589987D-01
 Leave Link  716 at Tue Mar  6 15:35:05 2018, MaxMem=   536870912 cpu:         0.1
 (Enter /share/apps//mg09/l103.exe)

 GradGradGradGradGradGradGradGradGradGradGradGradGradGradGradGradGradGrad
 Berny optimization.
 Search for a local minimum.
 Step number   1 out of a maximum of    2
 All quantities printed in internal units (Hartrees-Bohrs-Radians)
 Second derivative matrix not updated -- analytic derivatives used.
 ITU=  0
     Eigenvalues ---    0.00416   0.01358   0.02324   0.03517   0.04396
     Eigenvalues ---    0.04745   0.05509   0.05882   0.05958   0.06399
     Eigenvalues ---    0.07159   0.07367   0.08609   0.09442   0.09608
     Eigenvalues ---    0.10495   0.11838   0.12260   0.13556   0.13967
     Eigenvalues ---    0.15581
 Angle between quadratic step and forces=  32.22 degrees.
 Linear search not attempted -- first point.
 TrRot=  0.000034  0.000158 -0.000184  0.000006 -0.000058  0.000006
 MatCor failed.
 Variable       Old X    -DE/DX   Delta X   Delta X   Delta X     New X
                                 (Linear)    (Quad)   (Total)
    X1        0.23938  -0.00002   0.00000  -0.00313  -0.00331   0.23607
    Y1        3.24519   0.00000   0.00000   0.00474   0.00490   3.25008
    Z1        3.06369   0.00004   0.00000  -0.00078  -0.00095   3.06275
    X2       -3.53697   0.00002   0.00000   0.00568   0.00556  -3.53141
    Y2       -0.60204   0.00001   0.00000   0.00006   0.00017  -0.60187
    Z2        2.73756   0.00005   0.00000   0.01149   0.01111   2.74867
    X3        1.65924   0.00007   0.00000   0.00605   0.00594   1.66519
    Y3       -2.87157  -0.00004   0.00000  -0.00803  -0.00785  -2.87942
    Z3        3.10154  -0.00012   0.00000  -0.01193  -0.01201   3.08953
    X4       -3.08119   0.00003   0.00000  -0.00175  -0.00169  -3.08288
    Y4        3.60351  -0.00003   0.00000  -0.00753  -0.00740   3.59611
    Z4       -1.09705   0.00003   0.00000  -0.00026  -0.00062  -1.09767
    X5       -1.65093  -0.00010   0.00000  -0.01134  -0.01117  -1.66210
    Y5       -4.05179   0.00005   0.00000   0.00814   0.00828  -4.04352
    Z5       -1.40916  -0.00005   0.00000  -0.00369  -0.00397  -1.41313
    X6       -1.14641   0.00003   0.00000   0.00657   0.00687  -1.13954
    Y6        0.17683   0.00002   0.00000   0.00181   0.00195   0.17878
    Z6       -4.78383  -0.00003   0.00000  -0.00548  -0.00573  -4.78956
    X7        1.96986   0.00001   0.00000  -0.00025  -0.00010   1.96976
    Y7        3.43675  -0.00001   0.00000  -0.00027  -0.00009   3.43666
    Z7       -2.63571  -0.00008   0.00000  -0.00211  -0.00218  -2.63789
    X8        3.37357  -0.00002   0.00000   0.00030   0.00053   3.37410
    Y8       -1.94828  -0.00009   0.00000  -0.00675  -0.00656  -1.95483
    Z8       -2.97758   0.00018   0.00000   0.01188   0.01189  -2.96569
    X9        4.84727  -0.00002   0.00000  -0.00257  -0.00263   4.84464
    Y9        1.40174   0.00009   0.00000   0.00639   0.00660   1.40835
    Z9        1.34741  -0.00001   0.00000   0.00237   0.00247   1.34988
         Item               Value     Threshold  Converged?
 Maximum Force            0.000179     0.000450     YES
 RMS     Force            0.000061     0.000300     YES
 Maximum Displacement     0.012015     0.001800     NO 
 RMS     Displacement     0.006173     0.001200     NO 
 Predicted change in Energy=-4.297510D-06
 GradGradGradGradGradGradGradGradGradGradGradGradGradGradGradGradGradGrad

 Leave Link  103 at Tue Mar  6 15:35:05 2018, MaxMem=   536870912 cpu:         0.6
 (Enter /share/apps//mg09/l9999.exe)
 1\1\GINC-COMPUTE-0-6\Freq\RPBE1PBE\def2TZVP\Bi4Ge3Sn2\RODRIGO\06-Mar-2
 018\0\\#P Geom=AllCheck Guess=TCheck SCRF=Check GenChk RPBE1PBE/def2TZ
 VP Freq\\01Final_coords.xyz_01\\0,1\Ge,0.126673608,1.717278927,1.62123
 75619\Bi,-1.8716854188,-0.3185881139,1.4486566522\Sn,0.8780327602,-1.5
 195691095,1.6412648243\Bi,-1.6304951929,1.9068966305,-0.5805341924\Bi,
 -0.87363351,-2.1441168642,-0.7456961231\Ge,-0.6066554251,0.093572328,-
 2.5314928812\Ge,1.0424049656,1.818647434,-1.3947581655\Sn,1.7852162202
 ,-1.0309832965,-1.5756688327\Bi,2.5650669927,0.7417710645,0.7130211564
 \\Version=ES64L-G09RevD.01\State=1-A\HF=-7517.8271626\RMSD=2.536e-09\R
 MSF=6.108e-05\ZeroPoint=0.0058415\Thermal=0.0233003\Dipole=-0.127409,-
 0.2516263,0.4848124\DipoleDeriv=-0.049102,0.0132532,0.0447253,-0.03070
 29,0.0627938,0.0004254,-0.0147748,-0.0149836,0.0122986,0.0015387,0.021
 6567,-0.0572177,0.0420594,-0.1716087,0.0052291,-0.0427847,0.029328,0.0
 362539,0.0344981,-0.0804926,0.0875169,-0.0513776,0.1646125,-0.0999233,
 0.0399383,-0.089135,0.1977212,0.0061168,-0.0370779,0.0127862,-0.033351
 6,0.0776098,-0.0485401,-0.002379,-0.0190044,-0.1335526,-0.0574937,0.00
 72115,0.0249716,0.0424152,0.0403174,0.0770935,0.0323791,0.0547042,-0.2
 034549,-0.1157923,0.0162968,0.0331481,0.0510453,-0.1701796,-0.0101453,
 0.0284904,-0.0598692,0.0762519,-0.0895449,0.0778184,-0.0562075,0.01609
 03,0.0145102,-0.027465,0.0198446,0.046668,-0.0094178,0.1578004,-0.1177
 297,-0.185483,-0.1219698,0.078907,0.0782549,-0.0954633,0.0317421,0.145
 4929,0.1119789,0.0990635,0.0957602,0.0857916,-0.0969624,0.0250708,0.03
 47494,0.0205499,-0.1215931\Polar=385.964063,-3.8859028,373.9067831,-1.
 4583012,-2.2686716,372.4940401\PG=C01 [X(Bi4Ge3Sn2)]\NImag=0\\0.073979
 17,0.00033143,0.04110991,0.00580810,0.01660618,0.04788835,-0.01937687,
 -0.01495291,0.00285958,0.07138781,-0.01627766,-0.01702539,-0.00291848,
 0.00057124,0.06793502,0.00104305,-0.00347232,0.00009585,-0.02081156,-0
 .00493558,0.05205118,0.00121337,0.00149972,-0.00257704,-0.03138087,0.0
 1158163,-0.00037609,0.06114042,0.00144338,-0.00484473,0.00005449,0.011
 30862,-0.00603676,0.00305206,0.00539227,0.04539443,-0.00205991,-0.0020
 0356,-0.00237877,0.00078370,0.00320656,0.00082390,0.01169414,-0.016172
 87,0.04552579,-0.01801457,0.00541972,-0.01828370,-0.00527926,-0.000498
 76,0.00184852,0.00069388,-0.00061189,-0.00099097,0.07794356,0.00398014
 ,-0.00112471,-0.00028735,-0.00142120,-0.02523880,0.02394033,0.00234900
 ,-0.00376029,-0.00096736,-0.02112926,0.05548055,-0.01816785,0.00032193
 ,-0.02453937,0.00331680,0.02341535,-0.01884083,-0.00634975,0.00371153,
 -0.00168902,-0.00041357,-0.01182009,0.06808013,0.00053702,0.00233362,-
 0.00165412,-0.00902335,0.00640472,0.01135294,-0.01187262,-0.00692078,-
 0.01571987,0.00154390,0.00416395,0.00059762,0.05580179,0.00005121,-0.0
 0398691,0.00103088,0.00634653,-0.01789057,-0.02093245,-0.00588785,-0.0
 0432579,-0.00269843,-0.00265562,-0.00589679,-0.00075073,0.01849428,0.0
 6592197,-0.00456557,-0.00640376,-0.00178068,0.01213043,-0.01994852,-0.
 02168849,-0.01550891,-0.00330501,-0.02140870,0.00056762,0.00024978,-0.
 00041365,-0.00395037,0.01122382,0.06353414,-0.00051749,-0.00190128,0.0
 0147655,0.00107602,-0.00002639,0.00498403,-0.00270472,0.00124086,-0.00
 095251,-0.00873564,0.00993310,0.00792684,-0.00351079,-0.00386800,-0.00
 035304,0.05067989,-0.00323960,-0.00131545,-0.00608799,0.00008453,0.000
 06100,0.00162276,0.00302245,0.00073467,0.00483822,0.01032192,-0.015390
 99,-0.01705107,-0.00439197,-0.02156790,0.01595946,-0.00528129,0.059880
 54,-0.00183121,0.00128669,-0.00664004,-0.00172568,-0.00058443,-0.00410
 517,-0.00045769,-0.00191600,-0.00436060,0.00673890,-0.01375371,-0.0177
 6437,-0.00024451,0.01299738,-0.01441736,0.01438112,0.00495623,0.064630
 75,-0.00028901,-0.00299861,0.00123911,-0.00102715,-0.00738310,0.002320
 06,0.00114605,0.00405590,0.00019663,-0.03997681,0.00337419,0.01195169,
 -0.00434994,0.00009380,0.00126280,-0.01113437,-0.01525626,-0.00857011,
 0.07446091,-0.00292032,-0.00189619,-0.00187729,-0.00122664,-0.00255740
 ,-0.00034895,-0.00134159,-0.00433908,0.00135969,0.00707024,-0.00004891
 ,0.00214836,-0.00145517,-0.00545432,0.00347104,-0.01192074,-0.01488759
 ,-0.00423451,0.00276947,0.05714834,0.00144168,0.00069749,-0.00230231,0
 .00036144,0.00466931,-0.00431195,0.00468910,0.00371672,-0.00357166,0.0
 1007529,0.00164078,-0.00198940,0.00108160,-0.00042008,-0.00179506,-0.0
 1183748,-0.00804751,-0.00852710,0.00850582,-0.01182473,0.04260157,0.00
 152884,-0.00108194,0.00013836,-0.00336947,0.00527423,0.00084530,-0.001
 39934,0.00190000,0.00223887,-0.00468789,0.00022322,0.00243142,-0.02796
 739,-0.01305296,0.01043246,-0.02297235,0.01398808,-0.00821170,-0.00320
 427,0.00306623,0.00268709,0.06865783,0.00315585,-0.00458174,-0.0007155
 1,0.00033927,0.00108564,0.00182264,0.00219208,0.00064182,0.00288339,0.
 00049647,-0.00359944,-0.00256848,-0.01549473,-0.00628100,0.00111234,0.
 01163481,-0.00423310,0.00134407,0.00680672,-0.02138431,-0.00190010,-0.
 00277694,0.05100632,0.00601816,-0.00186763,-0.00415681,0.00087061,-0.0
 0274803,-0.00284257,0.00301533,0.00173539,-0.00751014,0.00078340,0.000
 04433,-0.00218093,0.00830248,0.00053677,-0.00267859,-0.01214523,0.0030
 8425,-0.00567204,0.00215792,0.00045511,0.00212743,-0.00166291,0.016122
 00,0.04372364,-0.03906046,0.01135026,0.01099316,-0.00300685,0.00035408
 ,-0.00120626,-0.01683616,-0.01780836,0.00480992,-0.00348718,-0.0014731
 4,-0.00129320,-0.00115862,0.00047861,-0.00001542,-0.00218055,0.0007521
 3,-0.00007911,-0.01562541,0.00595854,-0.01700453,-0.00658595,-0.006353
 52,-0.00733975,0.08794118,0.01347558,-0.00633479,-0.00580493,-0.001049
 43,-0.00033274,-0.00074848,-0.01880771,-0.02346427,0.00955435,0.001587
 19,-0.00042061,0.00259321,-0.00313392,-0.00051870,-0.00235916,0.000188
 92,-0.00328118,-0.00009572,0.00853789,-0.00658054,0.01146813,-0.007539
 92,-0.01265420,-0.01736219,0.00674140,0.05358702,0.01231355,-0.0051650
 2,-0.00618622,0.00221469,-0.00015618,-0.00118192,0.00587091,0.00912369
 ,-0.00543081,-0.00032548,0.00095329,-0.00066258,0.00023423,-0.00098717
 ,0.00064839,-0.00348028,0.00072566,-0.00314407,-0.01906393,0.01085129,
 -0.02223151,-0.00889889,-0.01810034,-0.02080999,0.01113520,0.00275479,
 0.05899871\\0.00002080,0.00000401,-0.00004187,-0.00002234,-0.00000601,
 -0.00004575,-0.00007188,0.00003898,0.00012370,-0.00002994,0.00002623,-
 0.00002532,0.00010228,-0.00004870,0.00004829,-0.00002716,-0.00002175,0
 .00003222,-0.00000734,0.00001075,0.00007773,0.00001685,0.00008546,-0.0
 0017915,0.00001874,-0.00008896,0.00001015\\\@


 THE REAL VOYAGE OF DISCOVERY CONSISTS NOT IN SEEKING NEW LANDSCAPES 
 BUT IN HAVING NEW EYES.
                                                    -- MARCEL PROUST
 Job cpu time:       0 days  4 hours 26 minutes 30.9 seconds.
 File lengths (MBytes):  RWF=    299 Int=      0 D2E=      0 Chk=     16 Scr=      1
 Normal termination of Gaussian 09 at Tue Mar  6 15:35:07 2018.
