 Entering Gaussian System, Link 0=/share/apps/mg09/g09
 Initial command:
 /share/apps//mg09/l1.exe "/state/partition1/gauss_tmp/Gau-24751.inp" -scrdir="/state/partition1/gauss_tmp/"
 Entering Link 1 = /share/apps//mg09/l1.exe PID=     24753.
  
 Copyright (c) 1988,1990,1992,1993,1995,1998,2003,2009,2013,
            Gaussian, Inc.  All Rights Reserved.
  
 This is part of the Gaussian(R) 09 program.  It is based on
 the Gaussian(R) 03 system (copyright 2003, Gaussian, Inc.),
 the Gaussian(R) 98 system (copyright 1998, Gaussian, Inc.),
 the Gaussian(R) 94 system (copyright 1995, Gaussian, Inc.),
 the Gaussian 92(TM) system (copyright 1992, Gaussian, Inc.),
 the Gaussian 90(TM) system (copyright 1990, Gaussian, Inc.),
 the Gaussian 88(TM) system (copyright 1988, Gaussian, Inc.),
 the Gaussian 86(TM) system (copyright 1986, Carnegie Mellon
 University), and the Gaussian 82(TM) system (copyright 1983,
 Carnegie Mellon University). Gaussian is a federally registered
 trademark of Gaussian, Inc.
  
 This software contains proprietary and confidential information,
 including trade secrets, belonging to Gaussian, Inc.
  
 This software is provided under written license and may be
 used, copied, transmitted, or stored only in accord with that
 written license.
  
 The following legend is applicable only to US Government
 contracts under FAR:
  
                    RESTRICTED RIGHTS LEGEND
  
 Use, reproduction and disclosure by the US Government is
 subject to restrictions as set forth in subparagraphs (a)
 and (c) of the Commercial Computer Software - Restricted
 Rights clause in FAR 52.227-19.
  
 Gaussian, Inc.
 340 Quinnipiac St., Bldg. 40, Wallingford CT 06492
  
  
 ---------------------------------------------------------------
 Warning -- This program may not be used in any manner that
 competes with the business of Gaussian, Inc. or will provide
 assistance to any competitor of Gaussian, Inc.  The licensee
 of this program is prohibited from giving any competitor of
 Gaussian, Inc. access to this program.  By using this program,
 the user acknowledges that Gaussian, Inc. is engaged in the
 business of creating and licensing software in the field of
 computational chemistry and represents and warrants to the
 licensee that it is not a competitor of Gaussian, Inc. and that
 it will not use this program in any manner prohibited above.
 ---------------------------------------------------------------
  

 Cite this work as:
 Gaussian 09, Revision D.01,
 M. J. Frisch, G. W. Trucks, H. B. Schlegel, G. E. Scuseria, 
 M. A. Robb, J. R. Cheeseman, G. Scalmani, V. Barone, B. Mennucci, 
 G. A. Petersson, H. Nakatsuji, M. Caricato, X. Li, H. P. Hratchian, 
 A. F. Izmaylov, J. Bloino, G. Zheng, J. L. Sonnenberg, M. Hada, 
 M. Ehara, K. Toyota, R. Fukuda, J. Hasegawa, M. Ishida, T. Nakajima, 
 Y. Honda, O. Kitao, H. Nakai, T. Vreven, J. A. Montgomery, Jr., 
 J. E. Peralta, F. Ogliaro, M. Bearpark, J. J. Heyd, E. Brothers, 
 K. N. Kudin, V. N. Staroverov, T. Keith, R. Kobayashi, J. Normand, 
 K. Raghavachari, A. Rendell, J. C. Burant, S. S. Iyengar, J. Tomasi, 
 M. Cossi, N. Rega, J. M. Millam, M. Klene, J. E. Knox, J. B. Cross, 
 V. Bakken, C. Adamo, J. Jaramillo, R. Gomperts, R. E. Stratmann, 
 O. Yazyev, A. J. Austin, R. Cammi, C. Pomelli, J. W. Ochterski, 
 R. L. Martin, K. Morokuma, V. G. Zakrzewski, G. A. Voth, 
 P. Salvador, J. J. Dannenberg, S. Dapprich, A. D. Daniels, 
 O. Farkas, J. B. Foresman, J. V. Ortiz, J. Cioslowski, 
 and D. J. Fox, Gaussian, Inc., Wallingford CT, 2013.
 
 ******************************************
 Gaussian 09:  ES64L-G09RevD.01 24-Apr-2013
                 6-Mar-2018 
 ******************************************
 %NProcShared=4
 Will use up to    4 processors via shared memory.
 %LindaWorkers=compute-0-6
 %chk=Isomer_42.chk
 %NProc=4
 Will use up to    4 processors via shared memory.
 %mem=4GB
 SetLPE:  input flags=" -vv -opt "Tsnet.Node.lindarsharg: ssh" "
 SetLPE:    new flags=" -vv -opt "Tsnet.Node.lindarsharg: ssh"  -nodelist 'compute-0-6.local'"
 Will use up to    1 processors via Linda.
 ----------------------------------------------------------------------
 #p PBE1PBE/Def2TZVP scf=(maxcycle=768) opt=(cartesian,maxcycle=512) fr
 eq
 ----------------------------------------------------------------------
 1/6=512,10=7,14=-1,18=10,26=3,38=1/1,3;
 2/12=2,17=6,18=5,29=2,40=1/2;
 3/5=44,7=101,11=2,16=1,25=1,30=1,71=1,74=-13/1,2,3;
 4//1;
 5/5=2,7=768,38=5/2;
 6/7=2,8=2,9=2,10=2,28=1/1;
 7/7=1,29=1/1,2,3,16;
 1/6=512,10=7,14=-1,18=10,26=3/3(2);
 2/29=1/2;
 99/12=1/99;
 2/29=1/2;
 3/5=44,7=101,11=2,16=1,25=1,30=1,71=1,74=-13/1,2,3;
 4/5=5,16=3,69=1/1;
 5/5=2,7=768,38=5/2;
 7/7=1/1,2,3,16;
 1/6=512,14=-1,18=10,26=3/3(-5);
 2/29=1/2;
 6/7=2,8=2,9=2,10=2,19=2,28=1/1;
 99/9=1,12=1/99;
 Leave Link    1 at Tue Mar  6 15:03:28 2018, MaxMem=   536870912 cpu:         0.2
 (Enter /share/apps//mg09/l101.exe)
 ---------------------
 01Final_coords.xyz_42
 ---------------------
 Symbolic Z-matrix:
 Charge =  0 Multiplicity = 1
 50                    2.22846   1.79033   0.0574 
 83                   -2.14358   0.81385   0.80406 
 50                    1.47866  -0.07481  -2.28398 
 83                   -0.76096  -1.93776   0.93132 
 32                   -0.39088   2.09024  -1.48186 
 32                    0.52273   0.33769   2.41705 
 83                    2.13964  -1.22698   0.54788 
 32                   -0.1726    2.75469   1.24623 
 83                   -1.45258  -0.68068  -1.78297 
 
 NAtoms=      9 NQM=        9 NQMF=       0 NMMI=      0 NMMIF=      0
                NMic=       0 NMicF=      0.
                    Isotopes and Nuclear Properties:
 (Nuclear quadrupole moments (NQMom) in fm**2, nuclear magnetic moments (NMagM)
  in nuclear magnetons)

  Atom         1           2           3           4           5           6           7           8           9
 IAtWgt=         118         209         118         209          74          74         209          74         209
 AtmWgt= 117.9018000 208.9804000 117.9018000 208.9804000  73.9211788  73.9211788 208.9804000  73.9211788 208.9804000
 NucSpn=           0           9           0           9           0           0           9           0           9
 AtZEff=   0.0000000   0.0000000   0.0000000   0.0000000   0.0000000   0.0000000   0.0000000   0.0000000   0.0000000
 NQMom=    0.0000000 -51.6000000   0.0000000 -51.6000000   0.0000000   0.0000000 -51.6000000   0.0000000 -51.6000000
 NMagM=    0.0000000   4.1106000   0.0000000   4.1106000   0.0000000   0.0000000   4.1106000   0.0000000   4.1106000
 AtZNuc=  50.0000000  83.0000000  50.0000000  83.0000000  32.0000000  32.0000000  83.0000000  32.0000000  83.0000000
 Leave Link  101 at Tue Mar  6 15:03:28 2018, MaxMem=   536870912 cpu:         0.2
 (Enter /share/apps//mg09/l103.exe)

 GradGradGradGradGradGradGradGradGradGradGradGradGradGradGradGradGradGrad
 Berny optimization.
 Initialization pass.
 No Z-matrix variables, so optimization will use Cartesian coordinates.
 Trust Radius=3.00D-01 FncErr=1.00D-07 GrdErr=1.00D-06
 Number of steps in this run=    100 maximum allowed number of steps=    100.
 GradGradGradGradGradGradGradGradGradGradGradGradGradGradGradGradGradGrad

 Leave Link  103 at Tue Mar  6 15:03:28 2018, MaxMem=   536870912 cpu:         0.0
 (Enter /share/apps//mg09/l202.exe)
 ---------------------------------------------------------------------------------------------------
                            Z-MATRIX (ANGSTROMS AND DEGREES)
   CD    Cent   Atom    N1       Length/X        N2       Alpha/Y        N3        Beta/Z          J
 ---------------------------------------------------------------------------------------------------
      1      1  Sn       0   2.228457          1.790333          0.057400
      2      2  Bi       0  -2.143581          0.813853          0.804059
      3      3  Sn       0   1.478659         -0.074811         -2.283978
      4      4  Bi       0  -0.760961         -1.937757          0.931324
      5      5  Ge       0  -0.390881          2.090237         -1.481862
      6      6  Ge       0   0.522727          0.337691          2.417049
      7      7  Bi       0   2.139635         -1.226977          0.547876
      8      8  Ge       0  -0.172595          2.754691          1.246225
      9      9  Bi       0  -1.452584         -0.680684         -1.782974
 ---------------------------------------------------------------------------------------------------
                         Z-Matrix orientation:                         
 ---------------------------------------------------------------------
 Center     Atomic      Atomic             Coordinates (Angstroms)
 Number     Number       Type             X           Y           Z
 ---------------------------------------------------------------------
      1         50           0        2.228457    1.790333    0.057400
      2         83           0       -2.143581    0.813853    0.804059
      3         50           0        1.478659   -0.074811   -2.283978
      4         83           0       -0.760961   -1.937757    0.931324
      5         32           0       -0.390881    2.090237   -1.481862
      6         32           0        0.522727    0.337691    2.417049
      7         83           0        2.139635   -1.226977    0.547876
      8         32           0       -0.172595    2.754691    1.246225
      9         83           0       -1.452584   -0.680684   -1.782974
 ---------------------------------------------------------------------
                    Distance matrix (angstroms):
                    1          2          3          4          5
     1  Sn   0.000000
     2  Bi   4.541556   0.000000
     3  Sn   3.085937   4.842140   0.000000
     4  Bi   4.857882   3.082076   4.338736   0.000000
     5  Ge   3.052901   3.150643   2.970859   4.710113   0.000000
     6  Ge   3.253863   3.152406   4.814937   3.005478   4.371225
     7  Bi   3.058205   4.751479   3.127902   3.010930   4.639747
     8  Ge   2.847515   2.801276   4.816124   4.739663   2.816311
     9  Bi   4.800309   3.066571   3.034843   3.070177   2.982597
                    6          7          8          9
     6  Ge   0.000000
     7  Bi   2.925130   0.000000
     8  Ge   2.774201   4.657014   0.000000
     9  Bi   4.751751   4.316866   4.755651   0.000000
 Stoichiometry    Bi4Ge3Sn2
 Framework group  C1[X(Bi4Ge3Sn2)]
 Deg. of freedom    21
 Full point group                 C1      NOp   1
 Largest Abelian subgroup         C1      NOp   1
 Largest concise Abelian subgroup C1      NOp   1
                         Standard orientation:                         
 ---------------------------------------------------------------------
 Center     Atomic      Atomic             Coordinates (Angstroms)
 Number     Number       Type             X           Y           Z
 ---------------------------------------------------------------------
      1         50           0       -2.228456    1.790334   -0.057400
      2         83           0        2.143581    0.813852   -0.804059
      3         50           0       -1.478659   -0.074811    2.283978
      4         83           0        0.760961   -1.937757   -0.931324
      5         32           0        0.390882    2.090237    1.481862
      6         32           0       -0.522727    0.337691   -2.417049
      7         83           0       -2.139635   -1.226976   -0.547876
      8         32           0        0.172596    2.754691   -1.246225
      9         83           0        1.452584   -0.680684    1.782974
 ---------------------------------------------------------------------
 Rotational constants (GHZ):      0.1016762      0.0882981      0.0848019
 Leave Link  202 at Tue Mar  6 15:03:28 2018, MaxMem=   536870912 cpu:         0.1
 (Enter /share/apps//mg09/l301.exe)
 Standard basis: def2TZVP (5D, 7F)
 Ernie: Thresh=  0.10000D-02 Tol=  0.10000D-05 Strict=F.
 There are   519 symmetry adapted cartesian basis functions of A   symmetry.
 There are   444 symmetry adapted basis functions of A   symmetry.
   444 basis functions,   963 primitive gaussians,   519 cartesian basis functions
   116 alpha electrons      116 beta electrons
       nuclear repulsion energy      3556.2747570185 Hartrees.
 IExCor= 1009 DFT=T Ex+Corr=PBE1PBE ExCW=0 ScaHFX=  0.250000
 ScaDFX=  0.750000  0.750000  1.000000  1.000000 ScalE2=  1.000000  1.000000
 IRadAn=      0 IRanWt=     -1 IRanGd=            0 ICorTp=0 IEmpDi=  4
 NAtoms=    9 NActive=    9 NUniq=    9 SFac= 1.00D+00 NAtFMM=   60 NAOKFM=F Big=F
 Integral buffers will be    131072 words long.
 Raffenetti 2 integral format.
 Two-electron integral symmetry is turned on.
 Leave Link  301 at Tue Mar  6 15:03:28 2018, MaxMem=   536870912 cpu:         0.1
 (Enter /share/apps//mg09/l302.exe)
 NPDir=0 NMtPBC=     1 NCelOv=     1 NCel=       1 NClECP=     1 NCelD=      1
         NCelK=      1 NCelE2=     1 NClLst=     1 CellRange=     0.0.
 One-electron integrals computed using PRISM.
   1 Symmetry operations used in ECPInt.
 ECPInt:  NShTT=   10440 NPrTT=   41973 LenC2=    9670 LenP2D=   27421.
 LDataN:  DoStor=T MaxTD1= 8 Len=  415
 NBasis=   444 RedAO= T EigKep=  1.38D-03  NBF=   444
 NBsUse=   444 1.00D-06 EigRej= -1.00D+00 NBFU=   444
 Precomputing XC quadrature grid using
 IXCGrd= 4 IRadAn=           0 IRanWt=          -1 IRanGd=           0 AccXCQ= 0.00D+00.
 Defaulting to unpruned grid for atomic number  50.
 Defaulting to unpruned grid for atomic number  83.
 Defaulting to unpruned grid for atomic number  83.
 Generated NRdTot=       0 NPtTot=           0 NUsed=           0 NTot=          32
 NSgBfM=   501   501   501   501   501 MxSgAt=     9 MxSgA2=     9.
 Leave Link  302 at Tue Mar  6 15:03:41 2018, MaxMem=   536870912 cpu:        42.3
 (Enter /share/apps//mg09/l303.exe)
 DipDrv:  MaxL=1.
 Leave Link  303 at Tue Mar  6 15:03:41 2018, MaxMem=   536870912 cpu:         0.3
 (Enter /share/apps//mg09/l401.exe)
 ExpMin= 4.62D-02 ExpMax= 4.66D+05 ExpMxC= 4.50D+03 IAcc=2 IRadAn=         4 AccDes= 0.00D+00
 Harris functional with IExCor= 1009 and IRadAn=       4 diagonalized for initial guess.
 HarFok:  IExCor= 1009 AccDes= 0.00D+00 IRadAn=         4 IDoV= 1 UseB2=F ITyADJ=14
 ICtDFT=  3500011 ScaDFX=  1.000000  1.000000  1.000000  1.000000
 Defaulting to unpruned grid for atomic number  50.
 Defaulting to unpruned grid for atomic number  50.
 Defaulting to unpruned grid for atomic number  50.
 Defaulting to unpruned grid for atomic number  50.
 FoFCou: FMM=F IPFlag=           0 FMFlag=      100000 FMFlg1=           0
         NFxFlg=           0 DoJE=T BraDBF=F KetDBF=T FulRan=T
         wScrn=  0.000000 ICntrl=     500 IOpCl=  0 I1Cent=   200000004 NGrid=           0
         NMat0=    1 NMatS0=      1 NMatT0=    0 NMatD0=    1 NMtDS0=    0 NMtDT0=    0
 Petite list used in FoFCou.
 Harris En= -7518.61525986010    
 JPrj=0 DoOrth=F DoCkMO=F.
 Leave Link  401 at Tue Mar  6 15:03:44 2018, MaxMem=   536870912 cpu:        11.5
 (Enter /share/apps//mg09/l502.exe)
 Closed shell SCF:
 Using DIIS extrapolation, IDIIS=  1040.
 Integral symmetry usage will be decided dynamically.
 IVT=     1410107 IEndB=     1410107 NGot=   536870912 MDV=   536322046
 LenX=   536322046 LenY=   536052166
 Requested convergence on RMS density matrix=1.00D-08 within 768 cycles.
 Requested convergence on MAX density matrix=1.00D-06.
 Requested convergence on             energy=1.00D-06.
 No special actions if energy rises.
 Fock matrices will be formed incrementally for  20 cycles.

 Cycle   1  Pass 1  IDiag  1:
 FoFJK:  IHMeth= 1 ICntrl=       0 DoSepK=F KAlg= 0 I1Cent=   0 FoldK=F
 IRaf= 880000000 NMat=   1 IRICut=       1 DoRegI=T DoRafI=F ISym2E= 0.
 FoFCou: FMM=F IPFlag=           0 FMFlag=      100000 FMFlg1=           0
         NFxFlg=           0 DoJE=F BraDBF=F KetDBF=F FulRan=T
         wScrn=  0.000000 ICntrl=       0 IOpCl=  0 I1Cent=           0 NGrid=           0
         NMat0=    1 NMatS0=      1 NMatT0=    0 NMatD0=    1 NMtDS0=    0 NMtDT0=    0
 Symmetry not used in FoFCou.
 Defaulting to unpruned grid for atomic number  50.
 Defaulting to unpruned grid for atomic number  50.
 Defaulting to unpruned grid for atomic number  50.
 Defaulting to unpruned grid for atomic number  50.
 E= -7517.16181198693    
 DIIS: error= 3.60D-02 at cycle   1 NSaved=   1.
 NSaved= 1 IEnMin= 1 EnMin= -7517.16181198693     IErMin= 1 ErrMin= 3.60D-02
 ErrMax= 3.60D-02  0.00D+00 EMaxC= 1.00D-01 BMatC= 1.52D+00 BMatP= 1.52D+00
 IDIUse=3 WtCom= 6.40D-01 WtEn= 3.60D-01
 Coeff-Com:  0.100D+01
 Coeff-En:   0.100D+01
 Coeff:      0.100D+01
 Gap=     0.118 Goal=   None    Shift=    0.000
 GapD=    0.118 DampG=1.000 DampE=0.500 DampFc=0.5000 IDamp=-1.
 Damping current iteration by 5.00D-01
 RMSDP=6.77D-03 MaxDP=3.39D-01              OVMax= 8.30D-01

 Cycle   2  Pass 1  IDiag  1:
 RMSU=  3.38D-03    CP:  1.01D+00
 E= -7516.46200124976     Delta-E=        0.699810737175 Rises=F Damp=T
 DIIS: error= 1.80D-02 at cycle   2 NSaved=   2.
 NSaved= 2 IEnMin= 1 EnMin= -7517.16181198693     IErMin= 2 ErrMin= 1.80D-02
 ErrMax= 1.80D-02  0.00D+00 EMaxC= 1.00D-01 BMatC= 5.17D-01 BMatP= 1.52D+00
 IDIUse=3 WtCom= 8.20D-01 WtEn= 1.80D-01
 Coeff-Com:  0.271D+00 0.729D+00
 Coeff-En:   0.708D+00 0.292D+00
 Coeff:      0.350D+00 0.650D+00
 Gap=     0.033 Goal=   None    Shift=    0.000
 RMSDP=4.69D-03 MaxDP=2.31D-01 DE= 7.00D-01 OVMax= 7.91D-01

 Cycle   3  Pass 1  IDiag  1:
 RMSU=  3.48D-03    CP:  1.00D+00  6.94D-02
 E= -7514.87168270348     Delta-E=        1.590318546278 Rises=F Damp=F
 DIIS: error= 4.09D-02 at cycle   3 NSaved=   3.
 NSaved= 3 IEnMin= 1 EnMin= -7517.16181198693     IErMin= 2 ErrMin= 1.80D-02
 ErrMax= 4.09D-02  0.00D+00 EMaxC= 1.00D-01 BMatC= 2.17D+00 BMatP= 5.17D-01
 IDIUse=2 WtCom= 0.00D+00 WtEn= 1.00D+00
 Rare condition: small coef for last iteration:  0.000D+00
 Coeff-En:   0.542D+00 0.297D+00 0.161D+00
 Coeff:      0.542D+00 0.297D+00 0.161D+00
 Gap=     0.215 Goal=   None    Shift=    0.000
 RMSDP=5.41D-03 MaxDP=2.37D-01 DE= 1.59D+00 OVMax= 5.71D-01

 Cycle   4  Pass 1  IDiag  1:
 RMSU=  1.86D-03    CP:  1.01D+00  1.13D+00 -3.54D-02
 E= -7516.52738875625     Delta-E=       -1.655706052767 Rises=F Damp=F
 DIIS: error= 2.61D-02 at cycle   4 NSaved=   4.
 NSaved= 4 IEnMin= 1 EnMin= -7517.16181198693     IErMin= 2 ErrMin= 1.80D-02
 ErrMax= 2.61D-02  0.00D+00 EMaxC= 1.00D-01 BMatC= 1.06D+00 BMatP= 5.17D-01
 IDIUse=2 WtCom= 0.00D+00 WtEn= 1.00D+00
 EnCoef did     8 forward-backward iterations
 Coeff-En:   0.538D+00 0.000D+00 0.661D-01 0.396D+00
 Coeff:      0.538D+00 0.000D+00 0.661D-01 0.396D+00
 Gap=     0.114 Goal=   None    Shift=    0.000
 RMSDP=3.12D-03 MaxDP=1.26D-01 DE=-1.66D+00 OVMax= 3.89D-01

 Cycle   5  Pass 1  IDiag  1:
 RMSU=  1.29D-03    CP:  1.00D+00  4.23D-01  3.43D-01  5.71D-01
 E= -7517.62813135075     Delta-E=       -1.100742594503 Rises=F Damp=F
 DIIS: error= 1.12D-02 at cycle   5 NSaved=   5.
 NSaved= 5 IEnMin= 5 EnMin= -7517.62813135075     IErMin= 5 ErrMin= 1.12D-02
 ErrMax= 1.12D-02  0.00D+00 EMaxC= 1.00D-01 BMatC= 2.18D-01 BMatP= 5.17D-01
 IDIUse=3 WtCom= 8.88D-01 WtEn= 1.12D-01
 EnCoef did     4 forward-backward iterations
 Coeff-Com:  0.387D+00-0.448D+00-0.141D+00 0.482D+00 0.720D+00
 Coeff-En:   0.307D-01 0.000D+00 0.000D+00 0.157D+00 0.812D+00
 Coeff:      0.347D+00-0.398D+00-0.125D+00 0.445D+00 0.731D+00
 Gap=     0.135 Goal=   None    Shift=    0.000
 RMSDP=1.47D-03 MaxDP=6.36D-02 DE=-1.10D+00 OVMax= 1.73D-01

 Cycle   6  Pass 1  IDiag  1:
 RMSU=  6.37D-04    CP:  1.00D+00  4.72D-01  4.35D-02  7.00D-01  4.07D-01
 E= -7517.75255554613     Delta-E=       -0.124424195377 Rises=F Damp=F
 DIIS: error= 6.45D-03 at cycle   6 NSaved=   6.
 NSaved= 6 IEnMin= 6 EnMin= -7517.75255554613     IErMin= 6 ErrMin= 6.45D-03
 ErrMax= 6.45D-03  0.00D+00 EMaxC= 1.00D-01 BMatC= 5.04D-02 BMatP= 2.18D-01
 IDIUse=3 WtCom= 9.36D-01 WtEn= 6.45D-02
 Coeff-Com:  0.791D-01-0.371D-01-0.495D-01 0.266D-01 0.425D+00 0.556D+00
 Coeff-En:   0.000D+00 0.000D+00 0.000D+00 0.000D+00 0.301D+00 0.699D+00
 Coeff:      0.740D-01-0.347D-01-0.463D-01 0.249D-01 0.417D+00 0.565D+00
 Gap=     0.129 Goal=   None    Shift=    0.000
 RMSDP=7.54D-04 MaxDP=3.18D-02 DE=-1.24D-01 OVMax= 8.63D-02

 Cycle   7  Pass 1  IDiag  1:
 RMSU=  3.54D-04    CP:  1.00D+00  4.17D-01  1.11D-01  6.17D-01  6.89D-01
                    CP:  3.12D-01
 E= -7517.79734387759     Delta-E=       -0.044788331466 Rises=F Damp=F
 DIIS: error= 2.51D-03 at cycle   7 NSaved=   7.
 NSaved= 7 IEnMin= 7 EnMin= -7517.79734387759     IErMin= 7 ErrMin= 2.51D-03
 ErrMax= 2.51D-03  0.00D+00 EMaxC= 1.00D-01 BMatC= 1.04D-02 BMatP= 5.04D-02
 IDIUse=3 WtCom= 9.75D-01 WtEn= 2.51D-02
 Coeff-Com:  0.878D-02 0.197D-01-0.899D-02-0.251D-01 0.193D+00 0.421D+00
 Coeff-Com:  0.391D+00
 Coeff-En:   0.000D+00 0.000D+00 0.000D+00 0.000D+00 0.000D+00 0.227D+00
 Coeff-En:   0.773D+00
 Coeff:      0.856D-02 0.192D-01-0.876D-02-0.244D-01 0.188D+00 0.416D+00
 Coeff:      0.401D+00
 Gap=     0.127 Goal=   None    Shift=    0.000
 RMSDP=3.45D-04 MaxDP=1.45D-02 DE=-4.48D-02 OVMax= 4.22D-02

 Cycle   8  Pass 1  IDiag  1:
 RMSU=  1.71D-04    CP:  1.00D+00  4.16D-01  1.23D-01  6.22D-01  6.42D-01
                    CP:  5.96D-01  3.59D-01
 E= -7517.80816968123     Delta-E=       -0.010825803638 Rises=F Damp=F
 DIIS: error= 1.29D-03 at cycle   8 NSaved=   8.
 NSaved= 8 IEnMin= 8 EnMin= -7517.80816968123     IErMin= 8 ErrMin= 1.29D-03
 ErrMax= 1.29D-03  0.00D+00 EMaxC= 1.00D-01 BMatC= 2.15D-03 BMatP= 1.04D-02
 IDIUse=3 WtCom= 9.87D-01 WtEn= 1.29D-02
 Coeff-Com: -0.531D-02 0.180D-01-0.861D-03-0.191D-01 0.805D-01 0.238D+00
 Coeff-Com:  0.324D+00 0.365D+00
 Coeff-En:   0.000D+00 0.000D+00 0.000D+00 0.000D+00 0.000D+00 0.000D+00
 Coeff-En:   0.205D+00 0.795D+00
 Coeff:     -0.524D-02 0.178D-01-0.850D-03-0.189D-01 0.794D-01 0.235D+00
 Coeff:      0.323D+00 0.370D+00
 Gap=     0.123 Goal=   None    Shift=    0.000
 RMSDP=1.34D-04 MaxDP=6.52D-03 DE=-1.08D-02 OVMax= 1.45D-02

 Cycle   9  Pass 1  IDiag  1:
 RMSU=  4.83D-05    CP:  1.00D+00  4.21D-01  1.17D-01  6.23D-01  6.48D-01
                    CP:  5.75D-01  4.69D-01  3.35D-01
 E= -7517.81077854368     Delta-E=       -0.002608862451 Rises=F Damp=F
 DIIS: error= 3.00D-04 at cycle   9 NSaved=   9.
 NSaved= 9 IEnMin= 9 EnMin= -7517.81077854368     IErMin= 9 ErrMin= 3.00D-04
 ErrMax= 3.00D-04  0.00D+00 EMaxC= 1.00D-01 BMatC= 1.20D-04 BMatP= 2.15D-03
 IDIUse=3 WtCom= 9.97D-01 WtEn= 3.00D-03
 Coeff-Com: -0.398D-02 0.626D-02-0.121D-03-0.483D-02 0.187D-01 0.793D-01
 Coeff-Com:  0.139D+00 0.223D+00 0.543D+00
 Coeff-En:   0.000D+00 0.000D+00 0.000D+00 0.000D+00 0.000D+00 0.000D+00
 Coeff-En:   0.000D+00 0.000D+00 0.100D+01
 Coeff:     -0.397D-02 0.624D-02-0.121D-03-0.482D-02 0.186D-01 0.790D-01
 Coeff:      0.139D+00 0.222D+00 0.544D+00
 Gap=     0.123 Goal=   None    Shift=    0.000
 RMSDP=3.46D-05 MaxDP=2.64D-03 DE=-2.61D-03 OVMax= 4.14D-03

 Cycle  10  Pass 1  IDiag  1:
 RMSU=  2.15D-05    CP:  1.00D+00  4.24D-01  1.14D-01  6.27D-01  6.49D-01
                    CP:  5.73D-01  4.88D-01  4.21D-01  6.46D-01
 E= -7517.81088739643     Delta-E=       -0.000108852752 Rises=F Damp=F
 DIIS: error= 1.29D-04 at cycle  10 NSaved=  10.
 NSaved=10 IEnMin=10 EnMin= -7517.81088739643     IErMin=10 ErrMin= 1.29D-04
 ErrMax= 1.29D-04  0.00D+00 EMaxC= 1.00D-01 BMatC= 2.16D-05 BMatP= 1.20D-04
 IDIUse=3 WtCom= 9.99D-01 WtEn= 1.29D-03
 Coeff-Com: -0.231D-02 0.316D-02-0.837D-04-0.174D-02 0.530D-02 0.329D-01
 Coeff-Com:  0.648D-01 0.118D+00 0.361D+00 0.420D+00
 Coeff-En:   0.000D+00 0.000D+00 0.000D+00 0.000D+00 0.000D+00 0.000D+00
 Coeff-En:   0.000D+00 0.000D+00 0.118D+00 0.882D+00
 Coeff:     -0.231D-02 0.315D-02-0.836D-04-0.174D-02 0.529D-02 0.329D-01
 Coeff:      0.647D-01 0.117D+00 0.360D+00 0.420D+00
 Gap=     0.123 Goal=   None    Shift=    0.000
 RMSDP=1.97D-05 MaxDP=7.93D-04 DE=-1.09D-04 OVMax= 2.54D-03

 Cycle  11  Pass 1  IDiag  1:
 RMSU=  1.12D-05    CP:  1.00D+00  4.23D-01  1.15D-01  6.27D-01  6.49D-01
                    CP:  5.75D-01  4.91D-01  4.32D-01  7.54D-01  3.08D-01
 E= -7517.81090139887     Delta-E=       -0.000014002435 Rises=F Damp=F
 DIIS: error= 1.12D-04 at cycle  11 NSaved=  11.
 NSaved=11 IEnMin=11 EnMin= -7517.81090139887     IErMin=11 ErrMin= 1.12D-04
 ErrMax= 1.12D-04  0.00D+00 EMaxC= 1.00D-01 BMatC= 1.09D-05 BMatP= 2.16D-05
 IDIUse=3 WtCom= 9.99D-01 WtEn= 1.12D-03
 Coeff-Com: -0.113D-02 0.157D-02-0.102D-03-0.448D-03-0.150D-02 0.500D-02
 Coeff-Com:  0.157D-01 0.395D-01 0.164D+00 0.377D+00 0.400D+00
 Coeff-En:   0.000D+00 0.000D+00 0.000D+00 0.000D+00 0.000D+00 0.000D+00
 Coeff-En:   0.000D+00 0.000D+00 0.000D+00 0.372D+00 0.628D+00
 Coeff:     -0.113D-02 0.157D-02-0.102D-03-0.448D-03-0.150D-02 0.500D-02
 Coeff:      0.157D-01 0.394D-01 0.164D+00 0.377D+00 0.400D+00
 Gap=     0.123 Goal=   None    Shift=    0.000
 RMSDP=8.51D-06 MaxDP=3.31D-04 DE=-1.40D-05 OVMax= 1.00D-03

 Cycle  12  Pass 1  IDiag  1:
 RMSU=  2.90D-06    CP:  1.00D+00  4.23D-01  1.15D-01  6.27D-01  6.50D-01
                    CP:  5.75D-01  4.92D-01  4.37D-01  7.39D-01  5.81D-01
                    CP:  5.58D-01
 E= -7517.81091433361     Delta-E=       -0.000012934745 Rises=F Damp=F
 DIIS: error= 3.07D-05 at cycle  12 NSaved=  12.
 NSaved=12 IEnMin=12 EnMin= -7517.81091433361     IErMin=12 ErrMin= 3.07D-05
 ErrMax= 3.07D-05  0.00D+00 EMaxC= 1.00D-01 BMatC= 7.31D-07 BMatP= 1.09D-05
 IDIUse=1 WtCom= 1.00D+00 WtEn= 0.00D+00
 Coeff-Com: -0.386D-03 0.639D-03-0.277D-04-0.914D-04-0.177D-02-0.112D-02
 Coeff-Com: -0.121D-02-0.693D-03 0.236D-01 0.125D+00 0.179D+00 0.677D+00
 Coeff:     -0.386D-03 0.639D-03-0.277D-04-0.914D-04-0.177D-02-0.112D-02
 Coeff:     -0.121D-02-0.693D-03 0.236D-01 0.125D+00 0.179D+00 0.677D+00
 Gap=     0.123 Goal=   None    Shift=    0.000
 RMSDP=2.06D-06 MaxDP=8.62D-05 DE=-1.29D-05 OVMax= 2.33D-04

 Cycle  13  Pass 1  IDiag  1:
 RMSU=  1.20D-06    CP:  1.00D+00  4.24D-01  1.14D-01  6.27D-01  6.50D-01
                    CP:  5.77D-01  4.93D-01  4.38D-01  7.50D-01  5.98D-01
                    CP:  6.17D-01  8.25D-01
 E= -7517.81091515732     Delta-E=       -0.000000823709 Rises=F Damp=F
 DIIS: error= 9.73D-06 at cycle  13 NSaved=  13.
 NSaved=13 IEnMin=13 EnMin= -7517.81091515732     IErMin=13 ErrMin= 9.73D-06
 ErrMax= 9.73D-06  0.00D+00 EMaxC= 1.00D-01 BMatC= 1.20D-07 BMatP= 7.31D-07
 IDIUse=1 WtCom= 1.00D+00 WtEn= 0.00D+00
 Coeff-Com: -0.103D-03 0.197D-03-0.779D-05-0.312D-04-0.620D-03-0.425D-03
 Coeff-Com: -0.173D-02-0.638D-02-0.101D-01 0.522D-02 0.179D-01 0.299D+00
 Coeff-Com:  0.697D+00
 Coeff:     -0.103D-03 0.197D-03-0.779D-05-0.312D-04-0.620D-03-0.425D-03
 Coeff:     -0.173D-02-0.638D-02-0.101D-01 0.522D-02 0.179D-01 0.299D+00
 Coeff:      0.697D+00
 Gap=     0.123 Goal=   None    Shift=    0.000
 RMSDP=1.06D-06 MaxDP=6.92D-05 DE=-8.24D-07 OVMax= 1.20D-04

 Cycle  14  Pass 1  IDiag  1:
 RMSU=  5.39D-07    CP:  1.00D+00  4.24D-01  1.14D-01  6.27D-01  6.50D-01
                    CP:  5.77D-01  4.94D-01  4.37D-01  7.56D-01  6.06D-01
                    CP:  6.31D-01  9.52D-01  7.44D-01
 E= -7517.81091531459     Delta-E=       -0.000000157266 Rises=F Damp=F
 DIIS: error= 2.52D-06 at cycle  14 NSaved=  14.
 NSaved=14 IEnMin=14 EnMin= -7517.81091531459     IErMin=14 ErrMin= 2.52D-06
 ErrMax= 2.52D-06  0.00D+00 EMaxC= 1.00D-01 BMatC= 1.25D-08 BMatP= 1.20D-07
 IDIUse=1 WtCom= 1.00D+00 WtEn= 0.00D+00
 Coeff-Com: -0.202D-04 0.417D-04 0.407D-06-0.103D-04-0.114D-03 0.414D-04
 Coeff-Com: -0.680D-03-0.372D-02-0.943D-02-0.147D-01-0.174D-01 0.710D-01
 Coeff-Com:  0.424D+00 0.551D+00
 Coeff:     -0.202D-04 0.417D-04 0.407D-06-0.103D-04-0.114D-03 0.414D-04
 Coeff:     -0.680D-03-0.372D-02-0.943D-02-0.147D-01-0.174D-01 0.710D-01
 Coeff:      0.424D+00 0.551D+00
 Gap=     0.123 Goal=   None    Shift=    0.000
 RMSDP=3.78D-07 MaxDP=2.17D-05 DE=-1.57D-07 OVMax= 4.11D-05

 Cycle  15  Pass 1  IDiag  1:
 RMSU=  1.53D-07    CP:  1.00D+00  4.24D-01  1.14D-01  6.27D-01  6.50D-01
                    CP:  5.77D-01  4.94D-01  4.37D-01  7.56D-01  6.10D-01
                    CP:  6.37D-01  9.59D-01  8.94D-01  5.88D-01
 E= -7517.81091532983     Delta-E=       -0.000000015241 Rises=F Damp=F
 DIIS: error= 4.87D-07 at cycle  15 NSaved=  15.
 NSaved=15 IEnMin=15 EnMin= -7517.81091532983     IErMin=15 ErrMin= 4.87D-07
 ErrMax= 4.87D-07  0.00D+00 EMaxC= 1.00D-01 BMatC= 5.35D-10 BMatP= 1.25D-08
 IDIUse=1 WtCom= 1.00D+00 WtEn= 0.00D+00
 Coeff-Com: -0.176D-05 0.475D-05 0.194D-06-0.506D-05 0.104D-04 0.762D-04
 Coeff-Com: -0.107D-03-0.100D-02-0.348D-02-0.668D-02-0.953D-02 0.197D-02
 Coeff-Com:  0.121D+00 0.258D+00 0.640D+00
 Coeff:     -0.176D-05 0.475D-05 0.194D-06-0.506D-05 0.104D-04 0.762D-04
 Coeff:     -0.107D-03-0.100D-02-0.348D-02-0.668D-02-0.953D-02 0.197D-02
 Coeff:      0.121D+00 0.258D+00 0.640D+00
 Gap=     0.123 Goal=   None    Shift=    0.000
 RMSDP=7.56D-08 MaxDP=3.63D-06 DE=-1.52D-08 OVMax= 8.78D-06

 Cycle  16  Pass 1  IDiag  1:
 RMSU=  3.89D-08    CP:  1.00D+00  4.24D-01  1.14D-01  6.27D-01  6.50D-01
                    CP:  5.77D-01  4.94D-01  4.37D-01  7.56D-01  6.11D-01
                    CP:  6.37D-01  9.67D-01  8.95D-01  6.65D-01  8.18D-01
 E= -7517.81091533046     Delta-E=       -0.000000000629 Rises=F Damp=F
 DIIS: error= 1.14D-07 at cycle  16 NSaved=  16.
 NSaved=16 IEnMin=16 EnMin= -7517.81091533046     IErMin=16 ErrMin= 1.14D-07
 ErrMax= 1.14D-07  0.00D+00 EMaxC= 1.00D-01 BMatC= 3.05D-11 BMatP= 5.35D-10
 IDIUse=1 WtCom= 1.00D+00 WtEn= 0.00D+00
 Coeff-Com:  0.499D-06-0.993D-06 0.105D-06-0.126D-05 0.128D-04 0.340D-04
 Coeff-Com: -0.813D-06-0.202D-03-0.102D-02-0.221D-02-0.309D-02-0.444D-02
 Coeff-Com:  0.272D-01 0.814D-01 0.274D+00 0.629D+00
 Coeff:      0.499D-06-0.993D-06 0.105D-06-0.126D-05 0.128D-04 0.340D-04
 Coeff:     -0.813D-06-0.202D-03-0.102D-02-0.221D-02-0.309D-02-0.444D-02
 Coeff:      0.272D-01 0.814D-01 0.274D+00 0.629D+00
 Gap=     0.123 Goal=   None    Shift=    0.000
 RMSDP=2.03D-08 MaxDP=1.05D-06 DE=-6.29D-10 OVMax= 2.62D-06

 Cycle  17  Pass 1  IDiag  1:
 RMSU=  1.37D-08    CP:  1.00D+00  4.24D-01  1.14D-01  6.27D-01  6.50D-01
                    CP:  5.77D-01  4.94D-01  4.37D-01  7.56D-01  6.11D-01
                    CP:  6.37D-01  9.67D-01  9.01D-01  6.76D-01  8.61D-01
                    CP:  8.78D-01
 E= -7517.81091533039     Delta-E=        0.000000000069 Rises=F Damp=F
 DIIS: error= 5.49D-08 at cycle  17 NSaved=  17.
 NSaved=17 IEnMin=16 EnMin= -7517.81091533046     IErMin=17 ErrMin= 5.49D-08
 ErrMax= 5.49D-08  0.00D+00 EMaxC= 1.00D-01 BMatC= 4.75D-12 BMatP= 3.05D-11
 IDIUse=1 WtCom= 1.00D+00 WtEn= 0.00D+00
 Coeff-Com:  0.269D-06-0.365D-06 0.496D-07-0.471D-06 0.544D-05 0.819D-05
 Coeff-Com:  0.132D-04 0.234D-04-0.100D-03-0.331D-03-0.442D-03-0.294D-02
 Coeff-Com:  0.700D-04 0.139D-01 0.778D-01 0.324D+00 0.588D+00
 Coeff:      0.269D-06-0.365D-06 0.496D-07-0.471D-06 0.544D-05 0.819D-05
 Coeff:      0.132D-04 0.234D-04-0.100D-03-0.331D-03-0.442D-03-0.294D-02
 Coeff:      0.700D-04 0.139D-01 0.778D-01 0.324D+00 0.588D+00
 Gap=     0.123 Goal=   None    Shift=    0.000
 RMSDP=9.21D-09 MaxDP=4.60D-07 DE= 6.91D-11 OVMax= 1.21D-06

 SCF Done:  E(RPBE1PBE) =  -7517.81091533     A.U. after   17 cycles
            NFock= 17  Conv=0.92D-08     -V/T= 2.1285
 KE= 6.661940362054D+03 PE=-2.470373930112D+04 EE= 6.967713266715D+03
 Leave Link  502 at Tue Mar  6 15:20:21 2018, MaxMem=   536870912 cpu:      3667.6
 (Enter /share/apps//mg09/l601.exe)
 Copying SCF densities to generalized density rwf, IOpCl= 0 IROHF=0.

 **********************************************************************

            Population analysis using the SCF density.

 **********************************************************************

 Orbital symmetries:
       Occupied  (A) (A) (A) (A) (A) (A) (A) (A) (A) (A) (A) (A)
                 (A) (A) (A) (A) (A) (A) (A) (A) (A) (A) (A) (A)
                 (A) (A) (A) (A) (A) (A) (A) (A) (A) (A) (A) (A)
                 (A) (A) (A) (A) (A) (A) (A) (A) (A) (A) (A) (A)
                 (A) (A) (A) (A) (A) (A) (A) (A) (A) (A) (A) (A)
                 (A) (A) (A) (A) (A) (A) (A) (A) (A) (A) (A) (A)
                 (A) (A) (A) (A) (A) (A) (A) (A) (A) (A) (A) (A)
                 (A) (A) (A) (A) (A) (A) (A) (A) (A) (A) (A) (A)
                 (A) (A) (A) (A) (A) (A) (A) (A) (A) (A) (A) (A)
                 (A) (A) (A) (A) (A) (A) (A) (A)
       Virtual   (A) (A) (A) (A) (A) (A) (A) (A) (A) (A) (A) (A)
                 (A) (A) (A) (A) (A) (A) (A) (A) (A) (A) (A) (A)
                 (A) (A) (A) (A) (A) (A) (A) (A) (A) (A) (A) (A)
                 (A) (A) (A) (A) (A) (A) (A) (A) (A) (A) (A) (A)
                 (A) (A) (A) (A) (A) (A) (A) (A) (A) (A) (A) (A)
                 (A) (A) (A) (A) (A) (A) (A) (A) (A) (A) (A) (A)
                 (A) (A) (A) (A) (A) (A) (A) (A) (A) (A) (A) (A)
                 (A) (A) (A) (A) (A) (A) (A) (A) (A) (A) (A) (A)
                 (A) (A) (A) (A) (A) (A) (A) (A) (A) (A) (A) (A)
                 (A) (A) (A) (A) (A) (A) (A) (A) (A) (A) (A) (A)
                 (A) (A) (A) (A) (A) (A) (A) (A) (A) (A) (A) (A)
                 (A) (A) (A) (A) (A) (A) (A) (A) (A) (A) (A) (A)
                 (A) (A) (A) (A) (A) (A) (A) (A) (A) (A) (A) (A)
                 (A) (A) (A) (A) (A) (A) (A) (A) (A) (A) (A) (A)
                 (A) (A) (A) (A) (A) (A) (A) (A) (A) (A) (A) (A)
                 (A) (A) (A) (A) (A) (A) (A) (A) (A) (A) (A) (A)
                 (A) (A) (A) (A) (A) (A) (A) (A) (A) (A) (A) (A)
                 (A) (A) (A) (A) (A) (A) (A) (A) (A) (A) (A) (A)
                 (A) (A) (A) (A) (A) (A) (A) (A) (A) (A) (A) (A)
                 (A) (A) (A) (A) (A) (A) (A) (A) (A) (A) (A) (A)
                 (A) (A) (A) (A) (A) (A) (A) (A) (A) (A) (A) (A)
                 (A) (A) (A) (A) (A) (A) (A) (A) (A) (A) (A) (A)
                 (A) (A) (A) (A) (A) (A) (A) (A) (A) (A) (A) (A)
                 (A) (A) (A) (A) (A) (A) (A) (A) (A) (A) (A) (A)
                 (A) (A) (A) (A) (A) (A) (A) (A) (A) (A) (A) (A)
                 (A) (A) (A) (A) (A) (A) (A) (A) (A) (A) (A) (A)
                 (A) (A) (A) (A) (A) (A) (A) (A) (A) (A) (A) (A)
                 (A) (A) (A) (A)
 The electronic state is 1-A.
 Alpha  occ. eigenvalues -- -399.10446-399.09644-399.09042 -49.91981 -49.91193
 Alpha  occ. eigenvalues --  -49.90656 -44.40091 -44.40036 -44.39991 -44.39306
 Alpha  occ. eigenvalues --  -44.39235 -44.39212 -44.38729 -44.38720 -44.38672
 Alpha  occ. eigenvalues --   -6.28472  -6.27684  -6.27173  -6.03051  -6.02657
 Alpha  occ. eigenvalues --   -6.01747  -6.01006  -5.13033  -5.12609  -4.43989
 Alpha  occ. eigenvalues --   -4.43815  -4.43656  -4.43219  -4.42990  -4.42898
 Alpha  occ. eigenvalues --   -4.42612  -4.42571  -4.42409  -3.75330  -3.75259
 Alpha  occ. eigenvalues --   -3.74996  -3.74913  -3.74808  -3.74663  -3.74054
 Alpha  occ. eigenvalues --   -3.73952  -3.73641  -3.73351  -3.73101  -3.72965
 Alpha  occ. eigenvalues --   -3.46292  -3.46154  -3.46008  -3.45847  -3.45706
 Alpha  occ. eigenvalues --   -3.45617  -1.23432  -1.23395  -1.23254  -1.23132
 Alpha  occ. eigenvalues --   -1.23104  -1.22649  -1.22597  -1.22500  -1.22355
 Alpha  occ. eigenvalues --   -1.22315  -1.22097  -1.22060  -1.21952  -1.21889
 Alpha  occ. eigenvalues --   -1.21866  -1.09341  -1.09205  -1.08882  -1.08776
 Alpha  occ. eigenvalues --   -1.08699  -1.08689  -1.08536  -1.08384  -1.08296
 Alpha  occ. eigenvalues --   -1.08219  -1.07637  -1.07553  -1.07360  -1.07296
 Alpha  occ. eigenvalues --   -1.07251  -1.06941  -1.06856  -1.06731  -1.06583
 Alpha  occ. eigenvalues --   -1.06529  -1.02562  -1.02472  -1.02365  -1.02325
 Alpha  occ. eigenvalues --   -1.02211  -1.01992  -1.01980  -1.01883  -1.01742
 Alpha  occ. eigenvalues --   -1.01697  -0.67589  -0.61548  -0.58803  -0.57495
 Alpha  occ. eigenvalues --   -0.51763  -0.47778  -0.43284  -0.42229  -0.39761
 Alpha  occ. eigenvalues --   -0.29468  -0.27896  -0.26420  -0.26027  -0.25257
 Alpha  occ. eigenvalues --   -0.24870  -0.23248  -0.21882  -0.21423  -0.21204
 Alpha  occ. eigenvalues --   -0.20077
 Alpha virt. eigenvalues --   -0.07780  -0.07456  -0.07266  -0.07060  -0.06019
 Alpha virt. eigenvalues --   -0.05800  -0.05397  -0.05080  -0.04100  -0.03330
 Alpha virt. eigenvalues --   -0.02776  -0.02018  -0.01530   0.03512   0.05290
 Alpha virt. eigenvalues --    0.05422   0.06523   0.07944   0.08806   0.09108
 Alpha virt. eigenvalues --    0.09373   0.09577   0.09833   0.10037   0.10445
 Alpha virt. eigenvalues --    0.11036   0.11496   0.11638   0.13001   0.13240
 Alpha virt. eigenvalues --    0.13513   0.15547   0.16528   0.17327   0.17509
 Alpha virt. eigenvalues --    0.17966   0.18870   0.19323   0.19718   0.19974
 Alpha virt. eigenvalues --    0.20619   0.20981   0.22955   0.23477   0.24350
 Alpha virt. eigenvalues --    0.24886   0.25199   0.25554   0.27321   0.28645
 Alpha virt. eigenvalues --    0.29432   0.30054   0.30636   0.30854   0.31125
 Alpha virt. eigenvalues --    0.31331   0.32658   0.32999   0.33324   0.34079
 Alpha virt. eigenvalues --    0.34343   0.35389   0.35659   0.37005   0.37619
 Alpha virt. eigenvalues --    0.38502   0.40163   0.40840   0.41519   0.41716
 Alpha virt. eigenvalues --    0.42046   0.42709   0.43916   0.44184   0.44717
 Alpha virt. eigenvalues --    0.45671   0.46044   0.46520   0.46907   0.47228
 Alpha virt. eigenvalues --    0.48624   0.49308   0.49509   0.50936   0.51309
 Alpha virt. eigenvalues --    0.51731   0.53689   0.54438   0.55393   0.56223
 Alpha virt. eigenvalues --    0.57349   0.57799   0.58585   0.58967   0.59564
 Alpha virt. eigenvalues --    0.60346   0.60723   0.61157   0.61373   0.62089
 Alpha virt. eigenvalues --    0.63212   0.63503   0.64353   0.65435   0.65913
 Alpha virt. eigenvalues --    0.66400   0.67332   0.68071   0.68218   0.70301
 Alpha virt. eigenvalues --    0.70816   0.72044   0.73359   0.74061   0.74682
 Alpha virt. eigenvalues --    0.75124   0.75795   0.76797   0.77534   0.78009
 Alpha virt. eigenvalues --    0.78420   0.79292   0.80445   0.80696   0.81791
 Alpha virt. eigenvalues --    0.82697   0.83369   0.83958   0.84360   0.85552
 Alpha virt. eigenvalues --    0.87022   0.87716   0.89144   0.89824   0.89961
 Alpha virt. eigenvalues --    0.91233   0.91755   0.92347   0.92716   0.93097
 Alpha virt. eigenvalues --    0.94039   0.95043   0.96291   0.97043   0.98182
 Alpha virt. eigenvalues --    0.98902   0.99631   1.00659   1.01293   1.01887
 Alpha virt. eigenvalues --    1.02449   1.02670   1.04802   1.05213   1.06449
 Alpha virt. eigenvalues --    1.08318   1.09020   1.10334   1.10603   1.12825
 Alpha virt. eigenvalues --    1.13352   1.13980   1.14947   1.15511   1.16891
 Alpha virt. eigenvalues --    1.18322   1.19148   1.19333   1.19782   1.19979
 Alpha virt. eigenvalues --    1.20886   1.21074   1.21357   1.21713   1.22128
 Alpha virt. eigenvalues --    1.22787   1.22969   1.23534   1.23731   1.24070
 Alpha virt. eigenvalues --    1.25541   1.25692   1.26630   1.27012   1.27883
 Alpha virt. eigenvalues --    1.28296   1.28865   1.29158   1.29341   1.29633
 Alpha virt. eigenvalues --    1.30338   1.32450   1.32554   1.33075   1.34024
 Alpha virt. eigenvalues --    1.34688   1.34755   1.35976   1.37759   1.39004
 Alpha virt. eigenvalues --    1.39463   1.40249   1.41442   1.42783   1.43369
 Alpha virt. eigenvalues --    1.44103   1.45011   1.46555   1.47478   1.48078
 Alpha virt. eigenvalues --    1.48798   1.49745   1.50700   1.51363   1.54810
 Alpha virt. eigenvalues --    1.55262   1.56065   1.56366   1.57518   1.59057
 Alpha virt. eigenvalues --    1.62948   1.67787   1.70597   1.99338   2.07078
 Alpha virt. eigenvalues --    2.08150   2.08856   2.11906   2.12756   2.15122
 Alpha virt. eigenvalues --    2.15946   2.16655   2.17383   2.18553   2.20618
 Alpha virt. eigenvalues --    2.22584   2.22886   2.24352   2.25533   2.27153
 Alpha virt. eigenvalues --    2.28296   2.29721   2.30438   2.31204   2.32200
 Alpha virt. eigenvalues --    2.33919   2.35441   2.35753   2.38141   2.40877
 Alpha virt. eigenvalues --    2.41709   2.42033   2.44688   2.46970   2.47689
 Alpha virt. eigenvalues --    2.49157   2.49751   2.52180   2.53410   2.55502
 Alpha virt. eigenvalues --    2.58508   2.59852   2.61302   2.64900   2.66697
 Alpha virt. eigenvalues --    2.68094   2.70425   2.71989   2.73376   2.76448
 Alpha virt. eigenvalues --    2.77723   2.78053   2.78851   2.80692   2.81570
 Alpha virt. eigenvalues --    2.83036   2.84235   2.86884   2.94082   2.96291
 Alpha virt. eigenvalues --    3.20030   3.25260   3.29631   3.35618   3.39248
 Alpha virt. eigenvalues --    3.41849   3.92429   3.96004   3.99189   4.00257
 Alpha virt. eigenvalues --    4.01554   4.03097   4.07839   4.11195   4.13644
 Alpha virt. eigenvalues --    5.28620   5.34380   5.38224  35.35489  35.39039
 Alpha virt. eigenvalues --   35.40596  35.42708  35.45093  35.46562  35.47850
 Alpha virt. eigenvalues --   35.48517  35.53384  35.54665  35.60330  35.61571
 Alpha virt. eigenvalues --   35.83525  35.94634  36.02033  36.07461  36.19804
 Alpha virt. eigenvalues --   36.23060  36.93453  37.00507  37.02466  37.04740
 Alpha virt. eigenvalues --   37.09105  37.16727 113.58057 113.59657 120.20449
 Alpha virt. eigenvalues --  120.23301 120.24591 120.25517
          Condensed to atoms (all electrons):
               1          2          3          4          5          6
     1  Sn  21.315715  -0.021491   0.131889  -0.015793   0.115728   0.069312
     2  Bi  -0.021491  22.233836  -0.018031   0.150310   0.078734   0.080177
     3  Sn   0.131889  -0.018031  21.424080  -0.016903   0.150808  -0.014371
     4  Bi  -0.015793   0.150310  -0.016903  22.376381  -0.019448   0.123407
     5  Ge   0.115728   0.078734   0.150808  -0.019448  31.570969  -0.025704
     6  Ge   0.069312   0.080177  -0.014371   0.123407  -0.025704  31.544969
     7  Bi   0.137478  -0.024591   0.168946   0.202865  -0.016499   0.157720
     8  Ge   0.165805   0.201779  -0.013303  -0.018579   0.130486   0.156887
     9  Bi  -0.015171   0.150204   0.185693   0.172553   0.128250  -0.020786
               7          8          9
     1  Sn   0.137478   0.165805  -0.015171
     2  Bi  -0.024591   0.201779   0.150204
     3  Sn   0.168946  -0.013303   0.185693
     4  Bi   0.202865  -0.018579   0.172553
     5  Ge  -0.016499   0.130486   0.128250
     6  Ge   0.157720   0.156887  -0.020786
     7  Bi  22.413631  -0.016138  -0.025926
     8  Ge  -0.016138  31.573865  -0.016463
     9  Bi  -0.025926  -0.016463  22.426889
 Mulliken charges:
               1
     1  Sn   0.116529
     2  Bi   0.169074
     3  Sn   0.001191
     4  Bi   0.045206
     5  Ge  -0.113323
     6  Ge  -0.071611
     7  Bi   0.002515
     8  Ge  -0.164337
     9  Bi   0.014757
 Sum of Mulliken charges =   0.00000
 Mulliken charges with hydrogens summed into heavy atoms:
               1
     1  Sn   0.116529
     2  Bi   0.169074
     3  Sn   0.001191
     4  Bi   0.045206
     5  Ge  -0.113323
     6  Ge  -0.071611
     7  Bi   0.002515
     8  Ge  -0.164337
     9  Bi   0.014757
 Electronic spatial extent (au):  <R**2>=           6148.0690
 Charge=              0.0000 electrons
 Dipole moment (field-independent basis, Debye):
    X=              1.1051    Y=             -1.8258    Z=             -0.1523  Tot=              2.1397
 Quadrupole moment (field-independent basis, Debye-Ang):
   XX=           -214.5394   YY=           -218.8734   ZZ=           -222.0796
   XY=             -0.8883   XZ=             -0.7988   YZ=             -0.3970
 Traceless Quadrupole moment (field-independent basis, Debye-Ang):
   XX=              3.9581   YY=             -0.3759   ZZ=             -3.5821
   XY=             -0.8883   XZ=             -0.7988   YZ=             -0.3970
 Octapole moment (field-independent basis, Debye-Ang**2):
  XXX=             83.7660  YYY=           -153.6125  ZZZ=             -2.2077  XYY=             25.5823
  XXY=            -44.4667  XXZ=             -7.5269  XZZ=             32.9796  YZZ=            -49.6786
  YYZ=             -3.1099  XYZ=             -2.5628
 Hexadecapole moment (field-independent basis, Debye-Ang**3):
 XXXX=          -3493.5548 YYYY=          -3209.4775 ZZZZ=          -3048.0960 XXXY=             90.2638
 XXXZ=             15.8459 YYYX=             33.5467 YYYZ=             48.2134 ZZZX=             56.2801
 ZZZY=              7.9411 XXYY=          -1114.8797 XXZZ=          -1096.7403 YYZZ=          -1049.4227
 XXYZ=             -1.9211 YYXZ=              9.8853 ZZXY=              9.1058
 N-N= 3.556274757019D+03 E-N=-2.470373923910D+04  KE= 6.661940362054D+03
 No NMR shielding tensors so no spin-rotation constants.
 Leave Link  601 at Tue Mar  6 15:20:22 2018, MaxMem=   536870912 cpu:         1.8
 (Enter /share/apps//mg09/l701.exe)
 Compute integral first derivatives.
 ... and contract with generalized density number  0.
   1 Symmetry operations used in ECPInt.
 ECPInt:  NShTT=   10440 NPrTT=   41973 LenC2=    9670 LenP2D=   27421.
 LDataN:  DoStor=T MaxTD1= 9 Len=  602
 Leave Link  701 at Tue Mar  6 15:20:52 2018, MaxMem=   536870912 cpu:        99.4
 (Enter /share/apps//mg09/l702.exe)
 L702 exits ... SP integral derivatives will be done elsewhere.
 Leave Link  702 at Tue Mar  6 15:20:52 2018, MaxMem=   536870912 cpu:         0.1
 (Enter /share/apps//mg09/l703.exe)
 Compute integral first derivatives, UseDBF=F ICtDFT=           0.
 Integral derivatives from FoFJK, PRISM(SPDF).
 Calling FoFJK, ICntrl=      2127 FMM=F ISym2X=0 I1Cent= 0 IOpClX= 0 NMat=1 NMatS=1 NMatT=0.
 FoFJK:  IHMeth= 1 ICntrl=    2127 DoSepK=F KAlg= 0 I1Cent=   0 FoldK=F
 IRaf=         0 NMat=   1 IRICut=       1 DoRegI=T DoRafI=F ISym2E= 0.
 FoFCou: FMM=F IPFlag=           0 FMFlag=      100000 FMFlg1=         800
         NFxFlg=           0 DoJE=F BraDBF=F KetDBF=F FulRan=T
         wScrn=  0.000000 ICntrl=    2127 IOpCl=  0 I1Cent=           0 NGrid=           0
         NMat0=    1 NMatS0=      1 NMatT0=    0 NMatD0=    1 NMtDS0=    0 NMtDT0=    0
 Symmetry not used in FoFCou.
 Defaulting to unpruned grid for atomic number  50.
 Defaulting to unpruned grid for atomic number  50.
 Defaulting to unpruned grid for atomic number  50.
 Defaulting to unpruned grid for atomic number  50.
 Leave Link  703 at Tue Mar  6 15:24:59 2018, MaxMem=   536870912 cpu:       877.3
 (Enter /share/apps//mg09/l716.exe)
 Dipole        = 4.34795740D-01-7.18341582D-01-5.99099324D-02
 ***** Axes restored to original set *****
 -------------------------------------------------------------------
 Center     Atomic                   Forces (Hartrees/Bohr)
 Number     Number              X              Y              Z
 -------------------------------------------------------------------
      1       50          -0.015087721   -0.005959818   -0.000624446
      2       83           0.010338334    0.001968689   -0.001921817
      3       50          -0.005782119    0.005841187    0.010194131
      4       83           0.003200718    0.006759659   -0.001040051
      5       32           0.006577140   -0.008306169    0.010389560
      6       32          -0.001205014    0.003989473   -0.013037924
      7       83          -0.005992054    0.006087644   -0.000536953
      8       32           0.002773351   -0.014801093   -0.007475820
      9       83           0.005177365    0.004420428    0.004053319
 -------------------------------------------------------------------
 Cartesian Forces:  Max     0.015087721 RMS     0.007284482
 Force constants in Cartesian coordinates: 
                1             2             3             4             5 
      1  0.196693D+00
      2  0.319449D-01  0.168182D+00
      3 -0.458582D-02  0.101360D-01  0.127640D+00
      4 -0.912349D-02 -0.713431D-02  0.124334D-02  0.231925D+00
      5  0.439791D-04  0.574595D-02 -0.931635D-03  0.568866D-02  0.166900D+00
      6  0.445920D-02  0.100190D-02  0.777351D-02 -0.211411D-01  0.158247D-01
      7 -0.301513D-01 -0.187718D-01 -0.181833D-01 -0.124848D-02  0.282248D-02
      8  0.760341D-04 -0.303487D-01 -0.262485D-01  0.160924D-02  0.584196D-02
      9  0.124567D-01 -0.858461D-02 -0.357697D-01  0.920977D-02 -0.259766D-02
     10  0.108932D-02 -0.258709D-02 -0.222000D-02 -0.367742D-01  0.318417D-01
     11 -0.842764D-02 -0.113980D-02 -0.836322D-03 -0.480312D-02 -0.504695D-01
     12  0.326805D-02  0.428731D-02  0.456588D-02  0.594378D-02 -0.493413D-02
     13 -0.436604D-01  0.126083D-01 -0.243645D-01 -0.359600D-01 -0.131231D-01
     14 -0.150738D-01 -0.292272D-01  0.199594D-03  0.977969D-02 -0.283541D-01
     15 -0.425160D-03  0.137192D-01 -0.279067D-01 -0.365425D-03  0.187806D-01
     16 -0.261711D-01 -0.136089D-01  0.190232D-01 -0.470437D-01  0.796498D-02
     17 -0.746925D-02 -0.199005D-01  0.134656D-01  0.463144D-02 -0.155518D-01
     18 -0.118167D-01 -0.427128D-02 -0.347607D-01  0.793056D-02 -0.144689D-02
     19 -0.297495D-01 -0.226158D-01  0.492901D-02 -0.394560D-02  0.236266D-02
     20  0.160232D-01 -0.600564D-01  0.688214D-02  0.698338D-02  0.344512D-02
     21 -0.122294D-02  0.412920D-02 -0.160859D-01 -0.256823D-02  0.234494D-02
     22 -0.579778D-01  0.266419D-01  0.240103D-01 -0.655557D-01 -0.498430D-01
     23 -0.132552D-01 -0.360731D-01 -0.389268D-02 -0.864681D-02 -0.603904D-01
     24  0.453819D-02 -0.157802D-01 -0.283605D-01  0.712195D-02 -0.723245D-02
     25 -0.949194D-03 -0.647720D-02  0.147846D-03 -0.322736D-01  0.122417D-01
     26 -0.386221D-02  0.281805D-02  0.122576D-02 -0.810818D-02 -0.271672D-01
     27 -0.667153D-02 -0.463758D-02  0.290375D-02 -0.737464D-02 -0.198075D-01
                6             7             8             9            10 
      6  0.146360D+00
      7  0.620370D-03  0.127753D+00
      8  0.519825D-03 -0.883586D-02  0.970298D-01
      9  0.259079D-03 -0.207753D-01  0.169702D-01  0.147756D+00
     10 -0.145607D-02  0.320308D-02 -0.277379D-02  0.624708D-02  0.124071D+00
     11  0.668582D-02 -0.228228D-02 -0.995435D-03  0.167113D-02  0.208793D-01
     12 -0.146352D-01  0.627754D-02  0.239155D-02 -0.191358D-02  0.678776D-02
     13  0.273255D-01 -0.314654D-01  0.244783D-01 -0.789316D-02  0.409111D-02
     14  0.912875D-02  0.132312D-01 -0.412505D-01  0.130642D-01 -0.475462D-02
     15 -0.363496D-01  0.139857D-01 -0.172288D-01 -0.317565D-01  0.277564D-02
     16 -0.291875D-01  0.378569D-02 -0.541321D-03 -0.258069D-02 -0.242736D-01
     17  0.313039D-02  0.282045D-03  0.572253D-02 -0.139604D-02 -0.170722D-01
     18 -0.369740D-01  0.669937D-02 -0.133911D-02 -0.553361D-02 -0.541597D-02
     19  0.482206D-02 -0.236410D-01  0.599548D-02  0.777564D-02 -0.572586D-01
     20 -0.144636D-02  0.842902D-02 -0.203141D-01 -0.389076D-02 -0.252827D-01
     21  0.475933D-02 -0.142674D-01  0.240955D-01 -0.449675D-01  0.523654D-02
     22 -0.122089D-01  0.682886D-02 -0.582534D-03  0.466153D-02  0.775087D-02
     23 -0.170631D-01  0.301136D-02  0.838444D-03 -0.769942D-02 -0.378217D-02
     24 -0.260969D-01  0.541071D-02 -0.135670D-02  0.278126D-03  0.214149D-02
     25  0.267664D-01 -0.550646D-01 -0.194255D-01 -0.910155D-02 -0.218992D-01
     26 -0.177820D-01  0.211384D-02 -0.165241D-01 -0.753702D-02  0.353147D-02
     27 -0.450959D-01  0.202323D-01  0.219611D-02 -0.283520D-01 -0.140965D-01
               11            12            13            14            15 
     11  0.165514D+00
     12 -0.150426D-01  0.107632D+00
     13  0.320206D-02 -0.217927D-02  0.145368D+00
     14 -0.329533D-02  0.429847D-02 -0.955085D-02  0.200453D+00
     15  0.630041D-02  0.266775D-02  0.108139D-01 -0.295250D-01  0.187213D+00
     16 -0.105780D-01 -0.210315D-01  0.674505D-02  0.241452D-02 -0.270221D-02
     17 -0.483714D-01 -0.310042D-01  0.119828D-02  0.338001D-02  0.170081D-02
     18  0.445123D-02 -0.409554D-01 -0.467370D-02  0.106300D-01 -0.758419D-02
     19  0.114005D-01  0.275198D-02  0.915688D-03  0.819073D-02 -0.527659D-02
     20 -0.276628D-01  0.863104D-02  0.883345D-03 -0.846248D-03  0.508669D-02
     21  0.434677D-02 -0.174867D-01  0.789179D-03  0.298499D-02  0.307008D-02
     22 -0.284015D-03  0.312674D-02 -0.227010D-01 -0.463598D-03 -0.927208D-02
     23 -0.564407D-02  0.198988D-02  0.533742D-02 -0.361988D-01  0.166204D-01
     24 -0.394646D-02  0.553252D-02  0.333420D-03 -0.262370D-01 -0.595274D-01
     25 -0.910682D-02 -0.494506D-02 -0.233327D-01 -0.377329D-02 -0.953381D-02
     26 -0.279353D-01  0.293827D-01 -0.250338D-01 -0.646611D-01 -0.154544D-01
     27 -0.362999D-02 -0.454073D-01 -0.151373D-03  0.154560D-01 -0.298268D-01
               16            17            18            19            20 
     16  0.144810D+00
     17 -0.935506D-02  0.164210D+00
     18  0.143143D-01  0.924702D-02  0.226369D+00
     19 -0.348901D-01  0.170393D-01  0.104041D-02  0.149264D+00
     20  0.197579D-01 -0.386052D-01 -0.933772D-03 -0.325788D-01  0.144888D+00
     21  0.311308D-01 -0.271041D-01 -0.534658D-01 -0.968304D-02 -0.761401D-02
     22 -0.255506D-01  0.124399D-01 -0.111510D-03  0.261783D-02  0.325126D-02
     23  0.546218D-02 -0.561243D-01 -0.121702D-01  0.787992D-02 -0.240385D-02
     24 -0.946701D-02  0.321574D-01 -0.430608D-01 -0.929866D-04 -0.505340D-02
     25  0.258876D-02 -0.169437D-02 -0.796680D-02 -0.331236D-02  0.253337D-02
     26 -0.151623D-02  0.524101D-02 -0.416698D-02  0.232601D-02  0.155507D-02
     27  0.500703D-03 -0.196950D-03 -0.403442D-02 -0.626648D-02 -0.166156D-02
               21            22            23            24            25 
     21  0.115108D+00
     22 -0.303551D-02  0.149773D+00
     23 -0.140136D-02  0.696885D-02  0.196050D+00
     24  0.713095D-02 -0.442045D-02  0.318622D-01  0.141017D+00
     25 -0.637938D-02  0.481480D-02 -0.297555D-02 -0.556532D-02  0.129428D+00
     26 -0.178191D-02  0.187133D-02 -0.540225D-04 -0.441337D-02  0.286777D-01
     27  0.193797D-02 -0.275016D-02 -0.824569D-02  0.308708D-02  0.165777D-01
               26            27 
     26  0.126728D+00
     27  0.205272D-01  0.144788D+00
 Leave Link  716 at Tue Mar  6 15:24:59 2018, MaxMem=   536870912 cpu:         0.1
 (Enter /share/apps//mg09/l103.exe)

 GradGradGradGradGradGradGradGradGradGradGradGradGradGradGradGradGradGrad
 Berny optimization.
 Search for a local minimum.
 Step number   1 out of a maximum of  100
 All quantities printed in internal units (Hartrees-Bohrs-Radians)
 Second derivative matrix not updated -- first step.
 ITU=  0
     Eigenvalues ---    0.07691   0.11977   0.12222   0.12621   0.12891
     Eigenvalues ---    0.13794   0.14959   0.15126   0.15803   0.16540
     Eigenvalues ---    0.18459   0.21203   0.21894   0.23448   0.24216
     Eigenvalues ---    0.25792   0.26264   0.28502   0.29133   0.31149
     Eigenvalues ---    0.32144
 RFO step:  Lambda=-8.53838009D-03 EMin= 7.69079163D-02
 Linear search not attempted -- first point.
 TrRot=  0.001131 -0.001932 -0.001332  0.026342  0.000006 -0.026467
 Variable       Old X    -DE/DX   Delta X   Delta X   Delta X     New X
                                 (Linear)    (Quad)   (Total)
    X1        4.21117  -0.01509   0.00000  -0.08090  -0.07935   4.13183
    Y1        3.38324  -0.00596   0.00000  -0.03647  -0.03892   3.34432
    Z1        0.10847  -0.00062   0.00000  -0.00149  -0.00285   0.10562
    X2       -4.05078   0.01034   0.00000   0.05493   0.05626  -3.99452
    Y2        1.53796   0.00197   0.00000  -0.00317  -0.00461   1.53335
    Z2        1.51945  -0.00192   0.00000  -0.01806  -0.01937   1.50008
    X3        2.79426  -0.00578   0.00000  -0.04122  -0.04013   2.75413
    Y3       -0.14137   0.00584   0.00000   0.03688   0.03460  -0.10677
    Z3       -4.31609   0.01019   0.00000   0.07603   0.07468  -4.24141
    X4       -1.43801   0.00320   0.00000   0.02001   0.02070  -1.41731
    Y4       -3.66183   0.00676   0.00000   0.05015   0.04840  -3.61343
    Z4        1.75995  -0.00104   0.00000  -0.01251  -0.01383   1.74611
    X5       -0.73866   0.00658   0.00000   0.03330   0.03490  -0.70376
    Y5        3.94998  -0.00831   0.00000  -0.04378  -0.04562   3.90436
    Z5       -2.80031   0.01039   0.00000   0.05948   0.05816  -2.74216
    X6        0.98781  -0.00121   0.00000  -0.00646  -0.00522   0.98259
    Y6        0.63814   0.00399   0.00000   0.02418   0.02212   0.66026
    Z6        4.56756  -0.01304   0.00000  -0.07300  -0.07434   4.49323
    X7        4.04332  -0.00599   0.00000  -0.04997  -0.04912   3.99421
    Y7       -2.31865   0.00609   0.00000   0.04263   0.04020  -2.27845
    Z7        1.03534  -0.00054   0.00000  -0.01343  -0.01478   1.02055
    X8       -0.32616   0.00277   0.00000   0.02002   0.02180  -0.30436
    Y8        5.20561  -0.01480   0.00000  -0.07911  -0.08101   5.12461
    Z8        2.35502  -0.00748   0.00000  -0.04421  -0.04554   2.30949
    X9       -2.74499   0.00518   0.00000   0.03921   0.04017  -2.70482
    Y9       -1.28631   0.00442   0.00000   0.02643   0.02484  -1.26147
    Z9       -3.36933   0.00405   0.00000   0.03919   0.03788  -3.33146
         Item               Value     Threshold  Converged?
 Maximum Force            0.015088     0.000450     NO 
 RMS     Force            0.007284     0.000300     NO 
 Maximum Displacement     0.081005     0.001800     NO 
 RMS     Displacement     0.044085     0.001200     NO 
 Predicted change in Energy=-4.493387D-03
 Lowest energy point so far.  Saving SCF results.
 GradGradGradGradGradGradGradGradGradGradGradGradGradGradGradGradGradGrad

 Leave Link  103 at Tue Mar  6 15:24:59 2018, MaxMem=   536870912 cpu:         0.1
 (Enter /share/apps//mg09/l202.exe)
                          Input orientation:                          
 ---------------------------------------------------------------------
 Center     Atomic      Atomic             Coordinates (Angstroms)
 Number     Number       Type             X           Y           Z
 ---------------------------------------------------------------------
      1         50           0        2.186468    1.769736    0.055892
      2         83           0       -2.113812    0.811415    0.793807
      3         50           0        1.457425   -0.056501   -2.244460
      4         83           0       -0.750009   -1.912147    0.924004
      5         32           0       -0.372414    2.066096   -1.451087
      6         32           0        0.519963    0.349397    2.377712
      7         83           0        2.113643   -1.205706    0.540053
      8         32           0       -0.161060    2.711825    1.222127
      9         83           0       -1.431329   -0.667540   -1.762930
 ---------------------------------------------------------------------
                    Distance matrix (angstroms):
                    1          2          3          4          5
     1  Sn   0.000000
     2  Bi   4.467136   0.000000
     3  Sn   3.026263   4.768445   0.000000
     4  Bi   4.788818   3.048720   4.284314   0.000000
     5  Ge   2.984408   3.105840   2.912587   4.648661   0.000000
     6  Ge   3.191465   3.107891   4.733715   2.973328   4.289883
     7  Bi   3.015456   4.690899   3.082987   2.974387   4.566159
     8  Ge   2.785412   2.758307   4.722324   4.670851   2.758208
     9  Bi   4.726191   3.031501   2.991678   3.038562   2.948103
                    6          7          8          9
     6  Ge   0.000000
     7  Bi   2.887066   0.000000
     8  Ge   2.716659   4.581107   0.000000
     9  Bi   4.688989   4.261476   4.684470   0.000000
 Stoichiometry    Bi4Ge3Sn2
 Framework group  C1[X(Bi4Ge3Sn2)]
 Deg. of freedom    21
 Full point group                 C1      NOp   1
 RotChk:  IX=0 Diff= 2.41D-02
 Largest Abelian subgroup         C1      NOp   1
 Largest concise Abelian subgroup C1      NOp   1
                         Standard orientation:                         
 ---------------------------------------------------------------------
 Center     Atomic      Atomic             Coordinates (Angstroms)
 Number     Number       Type             X           Y           Z
 ---------------------------------------------------------------------
      1         50           0       -2.191903    1.754838   -0.081225
      2         83           0        2.110982    0.800660   -0.809259
      3         50           0       -1.452818   -0.030281    2.248017
      4         83           0        0.757355   -1.929811   -0.892408
      5         32           0        0.367873    2.085773    1.417016
      6         32           0       -0.523161    0.302535   -2.381565
      7         83           0       -2.108436   -1.227920   -0.516153
      8         32           0        0.150451    2.686332   -1.266223
      9         83           0        1.437580   -0.638307    1.772581
 ---------------------------------------------------------------------
 Rotational constants (GHZ):      0.1045668      0.0909360      0.0872113
 Leave Link  202 at Tue Mar  6 15:25:00 2018, MaxMem=   536870912 cpu:         0.0
 (Enter /share/apps//mg09/l301.exe)
 Standard basis: def2TZVP (5D, 7F)
 Ernie: Thresh=  0.10000D-02 Tol=  0.10000D-05 Strict=F.
 There are   519 symmetry adapted cartesian basis functions of A   symmetry.
 There are   444 symmetry adapted basis functions of A   symmetry.
   444 basis functions,   963 primitive gaussians,   519 cartesian basis functions
   116 alpha electrons      116 beta electrons
       nuclear repulsion energy      3613.3646052322 Hartrees.
 IExCor= 1009 DFT=T Ex+Corr=PBE1PBE ExCW=0 ScaHFX=  0.250000
 ScaDFX=  0.750000  0.750000  1.000000  1.000000 ScalE2=  1.000000  1.000000
 IRadAn=      0 IRanWt=     -1 IRanGd=            0 ICorTp=0 IEmpDi=  4
 NAtoms=    9 NActive=    9 NUniq=    9 SFac= 1.00D+00 NAtFMM=   60 NAOKFM=F Big=F
 Integral buffers will be    131072 words long.
 Raffenetti 2 integral format.
 Two-electron integral symmetry is turned on.
 Leave Link  301 at Tue Mar  6 15:25:00 2018, MaxMem=   536870912 cpu:         0.2
 (Enter /share/apps//mg09/l302.exe)
 NPDir=0 NMtPBC=     1 NCelOv=     1 NCel=       1 NClECP=     1 NCelD=      1
         NCelK=      1 NCelE2=     1 NClLst=     1 CellRange=     0.0.
 One-electron integrals computed using PRISM.
   1 Symmetry operations used in ECPInt.
 ECPInt:  NShTT=   10440 NPrTT=   41973 LenC2=    9705 LenP2D=   27620.
 LDataN:  DoStor=T MaxTD1= 8 Len=  415
 NBasis=   444 RedAO= T EigKep=  1.17D-03  NBF=   444
 NBsUse=   444 1.00D-06 EigRej= -1.00D+00 NBFU=   444
 Precomputing XC quadrature grid using
 IXCGrd= 4 IRadAn=           0 IRanWt=          -1 IRanGd=           0 AccXCQ= 0.00D+00.
 Defaulting to unpruned grid for atomic number  50.
 Defaulting to unpruned grid for atomic number  83.
 Defaulting to unpruned grid for atomic number  83.
 Generated NRdTot=       0 NPtTot=           0 NUsed=           0 NTot=          32
 NSgBfM=   504   504   504   504   504 MxSgAt=     9 MxSgA2=     9.
 Leave Link  302 at Tue Mar  6 15:25:09 2018, MaxMem=   536870912 cpu:        32.6
 (Enter /share/apps//mg09/l303.exe)
 DipDrv:  MaxL=1.
 Leave Link  303 at Tue Mar  6 15:25:09 2018, MaxMem=   536870912 cpu:         0.6
 (Enter /share/apps//mg09/l401.exe)
 Initial guess from the checkpoint file:  "Isomer_42.chk"
 B after Tr=     0.000000    0.000000    0.000000
         Rot=    0.999963    0.008366   -0.000660   -0.001776 Ang=   0.98 deg.
 Guess basis will be translated and rotated to current coordinates.
 JPrj=2 DoOrth=T DoCkMO=T.
 Generating alternative initial guess.
 ExpMin= 4.62D-02 ExpMax= 4.66D+05 ExpMxC= 4.50D+03 IAcc=2 IRadAn=         4 AccDes= 0.00D+00
 Harris functional with IExCor= 1009 and IRadAn=       4 diagonalized for initial guess.
 HarFok:  IExCor= 1009 AccDes= 0.00D+00 IRadAn=         4 IDoV= 1 UseB2=F ITyADJ=14
 ICtDFT=  3500011 ScaDFX=  1.000000  1.000000  1.000000  1.000000
 Defaulting to unpruned grid for atomic number  50.
 Defaulting to unpruned grid for atomic number  50.
 Defaulting to unpruned grid for atomic number  50.
 Defaulting to unpruned grid for atomic number  50.
 FoFCou: FMM=F IPFlag=           0 FMFlag=      100000 FMFlg1=           0
         NFxFlg=           0 DoJE=T BraDBF=F KetDBF=T FulRan=T
         wScrn=  0.000000 ICntrl=     500 IOpCl=  0 I1Cent=   200000004 NGrid=           0
         NMat0=    1 NMatS0=      1 NMatT0=    0 NMatD0=    1 NMtDS0=    0 NMtDT0=    0
 Petite list used in FoFCou.
 Harris En= -7518.62849706073    
 Leave Link  401 at Tue Mar  6 15:25:14 2018, MaxMem=   536870912 cpu:        15.0
 (Enter /share/apps//mg09/l502.exe)
 Closed shell SCF:
 Using DIIS extrapolation, IDIIS=  1040.
 Integral symmetry usage will be decided dynamically.
 IVT=     1410107 IEndB=     1410107 NGot=   536870912 MDV=   536322046
 LenX=   536322046 LenY=   536052166
 Requested convergence on RMS density matrix=1.00D-08 within 768 cycles.
 Requested convergence on MAX density matrix=1.00D-06.
 Requested convergence on             energy=1.00D-06.
 No special actions if energy rises.
 Fock matrices will be formed incrementally for  20 cycles.

 Cycle   1  Pass 1  IDiag  1:
 FoFJK:  IHMeth= 1 ICntrl=       0 DoSepK=F KAlg= 0 I1Cent=   0 FoldK=F
 IRaf= 880000000 NMat=   1 IRICut=       1 DoRegI=T DoRafI=F ISym2E= 0.
 FoFCou: FMM=F IPFlag=           0 FMFlag=      100000 FMFlg1=           0
         NFxFlg=           0 DoJE=F BraDBF=F KetDBF=F FulRan=T
         wScrn=  0.000000 ICntrl=       0 IOpCl=  0 I1Cent=           0 NGrid=           0
         NMat0=    1 NMatS0=      1 NMatT0=    0 NMatD0=    1 NMtDS0=    0 NMtDT0=    0
 Symmetry not used in FoFCou.
 Defaulting to unpruned grid for atomic number  50.
 Defaulting to unpruned grid for atomic number  50.
 Defaulting to unpruned grid for atomic number  50.
 Defaulting to unpruned grid for atomic number  50.
 E= -7517.81566761499    
 DIIS: error= 5.52D-03 at cycle   1 NSaved=   1.
 NSaved= 1 IEnMin= 1 EnMin= -7517.81566761499     IErMin= 1 ErrMin= 5.52D-03
 ErrMax= 5.52D-03  0.00D+00 EMaxC= 1.00D-01 BMatC= 8.87D-03 BMatP= 8.87D-03
 IDIUse=3 WtCom= 9.45D-01 WtEn= 5.52D-02
 Coeff-Com:  0.100D+01
 Coeff-En:   0.100D+01
 Coeff:      0.100D+01
 Gap=     7.370 Goal=   None    Shift=    0.000
 GapD=    7.370 DampG=2.000 DampE=1.000 DampFc=2.0000 IDamp=-1.
 RMSDP=1.85D-04 MaxDP=5.13D-03              OVMax= 2.20D-02

 Cycle   2  Pass 1  IDiag  1:
 RMSU=  1.84D-04    CP:  1.00D+00
 E= -7517.81562774255     Delta-E=        0.000039872444 Rises=F Damp=F
 DIIS: error= 1.46D-03 at cycle   2 NSaved=   2.
 NSaved= 2 IEnMin= 1 EnMin= -7517.81566761499     IErMin= 2 ErrMin= 1.46D-03
 ErrMax= 1.46D-03  0.00D+00 EMaxC= 1.00D-01 BMatC= 1.69D-03 BMatP= 8.87D-03
 IDIUse=3 WtCom= 9.85D-01 WtEn= 1.46D-02
 Coeff-Com:  0.198D+00 0.802D+00
 Coeff-En:   0.510D+00 0.490D+00
 Coeff:      0.203D+00 0.797D+00
 Gap=     0.124 Goal=   None    Shift=    0.000
 RMSDP=2.31D-04 MaxDP=9.90D-03 DE= 3.99D-05 OVMax= 2.10D-02

 Cycle   3  Pass 1  IDiag  1:
 RMSU=  2.12D-04    CP:  9.99D-01  5.14D-01
 E= -7517.81282397713     Delta-E=        0.002803765416 Rises=F Damp=F
 DIIS: error= 2.11D-03 at cycle   3 NSaved=   3.
 NSaved= 3 IEnMin= 1 EnMin= -7517.81566761499     IErMin= 2 ErrMin= 1.46D-03
 ErrMax= 2.11D-03  0.00D+00 EMaxC= 1.00D-01 BMatC= 4.52D-03 BMatP= 1.69D-03
 IDIUse=3 WtCom= 1.79D-01 WtEn= 8.21D-01
 Coeff-Com:  0.109D-01 0.618D+00 0.371D+00
 Coeff-En:   0.000D+00 0.692D+00 0.308D+00
 Coeff:      0.195D-02 0.679D+00 0.319D+00
 Gap=     0.126 Goal=   None    Shift=    0.000
 RMSDP=1.38D-04 MaxDP=5.54D-03 DE= 2.80D-03 OVMax= 1.59D-02

 Cycle   4  Pass 1  IDiag  1:
 RMSU=  5.84D-05    CP:  9.99D-01  7.78D-01  4.58D-01
 E= -7517.81672845435     Delta-E=       -0.003904477213 Rises=F Damp=F
 DIIS: error= 5.92D-04 at cycle   4 NSaved=   4.
 NSaved= 4 IEnMin= 4 EnMin= -7517.81672845435     IErMin= 4 ErrMin= 5.92D-04
 ErrMax= 5.92D-04  0.00D+00 EMaxC= 1.00D-01 BMatC= 3.63D-04 BMatP= 1.69D-03
 IDIUse=3 WtCom= 9.94D-01 WtEn= 5.92D-03
 Coeff-Com:  0.273D-03 0.456D+00 0.227D+00 0.317D+00
 Coeff-En:   0.000D+00 0.157D+00 0.000D+00 0.843D+00
 Coeff:      0.271D-03 0.455D+00 0.225D+00 0.320D+00
 Gap=     0.126 Goal=   None    Shift=    0.000
 RMSDP=4.80D-05 MaxDP=2.01D-03 DE=-3.90D-03 OVMax= 4.57D-03

 Cycle   5  Pass 1  IDiag  1:
 RMSU=  1.47D-05    CP:  9.99D-01  8.51D-01  4.20D-01  2.74D-01
 E= -7517.81703498322     Delta-E=       -0.000306528871 Rises=F Damp=F
 DIIS: error= 1.15D-04 at cycle   5 NSaved=   5.
 NSaved= 5 IEnMin= 5 EnMin= -7517.81703498322     IErMin= 5 ErrMin= 1.15D-04
 ErrMax= 1.15D-04  0.00D+00 EMaxC= 1.00D-01 BMatC= 1.44D-05 BMatP= 3.63D-04
 IDIUse=3 WtCom= 9.99D-01 WtEn= 1.15D-03
 Coeff-Com: -0.962D-03 0.226D+00 0.103D+00 0.214D+00 0.458D+00
 Coeff-En:   0.000D+00 0.000D+00 0.000D+00 0.000D+00 0.100D+01
 Coeff:     -0.961D-03 0.226D+00 0.103D+00 0.214D+00 0.458D+00
 Gap=     0.126 Goal=   None    Shift=    0.000
 RMSDP=9.83D-06 MaxDP=4.51D-04 DE=-3.07D-04 OVMax= 1.10D-03

 Cycle   6  Pass 1  IDiag  1:
 RMSU=  4.05D-06    CP:  9.99D-01  8.60D-01  4.11D-01  3.84D-01  6.41D-01
 E= -7517.81704881907     Delta-E=       -0.000013835852 Rises=F Damp=F
 DIIS: error= 1.70D-05 at cycle   6 NSaved=   6.
 NSaved= 6 IEnMin= 6 EnMin= -7517.81704881907     IErMin= 6 ErrMin= 1.70D-05
 ErrMax= 1.70D-05  0.00D+00 EMaxC= 1.00D-01 BMatC= 4.75D-07 BMatP= 1.44D-05
 IDIUse=1 WtCom= 1.00D+00 WtEn= 0.00D+00
 Coeff-Com: -0.466D-03 0.820D-01 0.384D-01 0.836D-01 0.225D+00 0.572D+00
 Coeff:     -0.466D-03 0.820D-01 0.384D-01 0.836D-01 0.225D+00 0.572D+00
 Gap=     0.126 Goal=   None    Shift=    0.000
 RMSDP=3.12D-06 MaxDP=1.32D-04 DE=-1.38D-05 OVMax= 3.92D-04

 Cycle   7  Pass 1  IDiag  1:
 RMSU=  2.60D-06    CP:  9.99D-01  8.63D-01  4.14D-01  3.79D-01  7.05D-01
                    CP:  7.53D-01
 E= -7517.81704888650     Delta-E=       -0.000000067435 Rises=F Damp=F
 DIIS: error= 2.27D-05 at cycle   7 NSaved=   7.
 NSaved= 7 IEnMin= 7 EnMin= -7517.81704888650     IErMin= 6 ErrMin= 1.70D-05
 ErrMax= 2.27D-05  0.00D+00 EMaxC= 1.00D-01 BMatC= 3.92D-07 BMatP= 4.75D-07
 IDIUse=1 WtCom= 1.00D+00 WtEn= 0.00D+00
 Coeff-Com: -0.166D-03 0.145D-01 0.790D-02 0.202D-01 0.807D-01 0.481D+00
 Coeff-Com:  0.396D+00
 Coeff:     -0.166D-03 0.145D-01 0.790D-02 0.202D-01 0.807D-01 0.481D+00
 Coeff:      0.396D+00
 Gap=     0.126 Goal=   None    Shift=    0.000
 RMSDP=2.12D-06 MaxDP=8.29D-05 DE=-6.74D-08 OVMax= 2.43D-04

 Cycle   8  Pass 1  IDiag  1:
 RMSU=  1.01D-06    CP:  9.99D-01  8.64D-01  4.16D-01  3.80D-01  7.13D-01
                    CP:  1.01D+00  4.39D-01
 E= -7517.81704930554     Delta-E=       -0.000000419035 Rises=F Damp=F
 DIIS: error= 8.34D-06 at cycle   8 NSaved=   8.
 NSaved= 8 IEnMin= 8 EnMin= -7517.81704930554     IErMin= 8 ErrMin= 8.34D-06
 ErrMax= 8.34D-06  0.00D+00 EMaxC= 1.00D-01 BMatC= 7.35D-08 BMatP= 3.92D-07
 IDIUse=1 WtCom= 1.00D+00 WtEn= 0.00D+00
 Coeff-Com:  0.174D-05-0.137D-01-0.525D-02-0.808D-02-0.130D-02 0.238D+00
 Coeff-Com:  0.323D+00 0.467D+00
 Coeff:      0.174D-05-0.137D-01-0.525D-02-0.808D-02-0.130D-02 0.238D+00
 Coeff:      0.323D+00 0.467D+00
 Gap=     0.126 Goal=   None    Shift=    0.000
 RMSDP=7.78D-07 MaxDP=5.26D-05 DE=-4.19D-07 OVMax= 9.54D-05

 Cycle   9  Pass 1  IDiag  1:
 RMSU=  2.93D-07    CP:  9.99D-01  8.64D-01  4.17D-01  3.83D-01  7.24D-01
                    CP:  1.03D+00  6.02D-01  5.07D-01
 E= -7517.81704938455     Delta-E=       -0.000000079011 Rises=F Damp=F
 DIIS: error= 1.37D-06 at cycle   9 NSaved=   9.
 NSaved= 9 IEnMin= 9 EnMin= -7517.81704938455     IErMin= 9 ErrMin= 1.37D-06
 ErrMax= 1.37D-06  0.00D+00 EMaxC= 1.00D-01 BMatC= 3.49D-09 BMatP= 7.35D-08
 IDIUse=1 WtCom= 1.00D+00 WtEn= 0.00D+00
 Coeff-Com:  0.190D-04-0.916D-02-0.368D-02-0.636D-02-0.965D-02 0.825D-01
 Coeff-Com:  0.140D+00 0.268D+00 0.538D+00
 Coeff:      0.190D-04-0.916D-02-0.368D-02-0.636D-02-0.965D-02 0.825D-01
 Coeff:      0.140D+00 0.268D+00 0.538D+00
 Gap=     0.126 Goal=   None    Shift=    0.000
 RMSDP=1.78D-07 MaxDP=1.20D-05 DE=-7.90D-08 OVMax= 2.97D-05

 Cycle  10  Pass 1  IDiag  1:
 RMSU=  1.01D-07    CP:  9.99D-01  8.64D-01  4.17D-01  3.84D-01  7.29D-01
                    CP:  1.03D+00  6.01D-01  5.91D-01  8.11D-01
 E= -7517.81704938813     Delta-E=       -0.000000003580 Rises=F Damp=F
 DIIS: error= 2.29D-07 at cycle  10 NSaved=  10.
 NSaved=10 IEnMin=10 EnMin= -7517.81704938813     IErMin=10 ErrMin= 2.29D-07
 ErrMax= 2.29D-07  0.00D+00 EMaxC= 1.00D-01 BMatC= 1.19D-10 BMatP= 3.49D-09
 IDIUse=1 WtCom= 1.00D+00 WtEn= 0.00D+00
 Coeff-Com:  0.466D-05-0.145D-02-0.567D-03-0.103D-02-0.293D-02 0.477D-02
 Coeff-Com:  0.131D-01 0.371D-01 0.172D+00 0.779D+00
 Coeff:      0.466D-05-0.145D-02-0.567D-03-0.103D-02-0.293D-02 0.477D-02
 Coeff:      0.131D-01 0.371D-01 0.172D+00 0.779D+00
 Gap=     0.126 Goal=   None    Shift=    0.000
 RMSDP=7.01D-08 MaxDP=2.76D-06 DE=-3.58D-09 OVMax= 1.24D-05

 Cycle  11  Pass 1  IDiag  1:
 RMSU=  5.25D-08    CP:  9.99D-01  8.65D-01  4.17D-01  3.84D-01  7.30D-01
                    CP:  1.04D+00  6.06D-01  5.97D-01  8.97D-01  1.01D+00
 E= -7517.81704938774     Delta-E=        0.000000000393 Rises=F Damp=F
 DIIS: error= 4.46D-07 at cycle  11 NSaved=  11.
 NSaved=11 IEnMin=10 EnMin= -7517.81704938813     IErMin=10 ErrMin= 2.29D-07
 ErrMax= 4.46D-07  0.00D+00 EMaxC= 1.00D-01 BMatC= 1.63D-10 BMatP= 1.19D-10
 IDIUse=1 WtCom= 1.00D+00 WtEn= 0.00D+00
 Coeff-Com:  0.516D-06 0.317D-03 0.147D-03 0.204D-03-0.776D-03-0.921D-02
 Coeff-Com: -0.123D-01-0.141D-01 0.525D-01 0.636D+00 0.348D+00
 Coeff:      0.516D-06 0.317D-03 0.147D-03 0.204D-03-0.776D-03-0.921D-02
 Coeff:     -0.123D-01-0.141D-01 0.525D-01 0.636D+00 0.348D+00
 Gap=     0.126 Goal=   None    Shift=    0.000
 RMSDP=4.37D-08 MaxDP=1.93D-06 DE= 3.93D-10 OVMax= 4.81D-06

 Cycle  12  Pass 1  IDiag  1:
 RMSU=  1.83D-08    CP:  9.99D-01  8.65D-01  4.17D-01  3.84D-01  7.30D-01
                    CP:  1.04D+00  6.07D-01  5.99D-01  9.14D-01  1.14D+00
                    CP:  3.06D-01
 E= -7517.81704938789     Delta-E=       -0.000000000153 Rises=F Damp=F
 DIIS: error= 1.25D-07 at cycle  12 NSaved=  12.
 NSaved=12 IEnMin=10 EnMin= -7517.81704938813     IErMin=12 ErrMin= 1.25D-07
 ErrMax= 1.25D-07  0.00D+00 EMaxC= 1.00D-01 BMatC= 1.36D-11 BMatP= 1.19D-10
 IDIUse=1 WtCom= 1.00D+00 WtEn= 0.00D+00
 Coeff-Com: -0.436D-06 0.448D-03 0.194D-03 0.296D-03 0.620D-05-0.674D-02
 Coeff-Com: -0.101D-01-0.151D-01 0.396D-02 0.269D+00 0.254D+00 0.504D+00
 Coeff:     -0.436D-06 0.448D-03 0.194D-03 0.296D-03 0.620D-05-0.674D-02
 Coeff:     -0.101D-01-0.151D-01 0.396D-02 0.269D+00 0.254D+00 0.504D+00
 Gap=     0.126 Goal=   None    Shift=    0.000
 RMSDP=1.30D-08 MaxDP=5.53D-07 DE=-1.53D-10 OVMax= 2.09D-06

 Cycle  13  Pass 1  IDiag  1:
 RMSU=  5.48D-09    CP:  9.99D-01  8.65D-01  4.17D-01  3.84D-01  7.30D-01
                    CP:  1.04D+00  6.08D-01  6.00D-01  9.27D-01  1.15D+00
                    CP:  4.79D-01  7.35D-01
 E= -7517.81704938775     Delta-E=        0.000000000136 Rises=F Damp=F
 DIIS: error= 2.53D-08 at cycle  13 NSaved=  13.
 NSaved=13 IEnMin=10 EnMin= -7517.81704938813     IErMin=13 ErrMin= 2.53D-08
 ErrMax= 2.53D-08  0.00D+00 EMaxC= 1.00D-01 BMatC= 8.10D-13 BMatP= 1.36D-11
 IDIUse=1 WtCom= 1.00D+00 WtEn= 0.00D+00
 Coeff-Com: -0.325D-06 0.211D-03 0.890D-04 0.144D-03 0.120D-03-0.246D-02
 Coeff-Com: -0.403D-02-0.656D-02-0.670D-02 0.619D-01 0.949D-01 0.273D+00
 Coeff-Com:  0.589D+00
 Coeff:     -0.325D-06 0.211D-03 0.890D-04 0.144D-03 0.120D-03-0.246D-02
 Coeff:     -0.403D-02-0.656D-02-0.670D-02 0.619D-01 0.949D-01 0.273D+00
 Coeff:      0.589D+00
 Gap=     0.126 Goal=   None    Shift=    0.000
 RMSDP=3.16D-09 MaxDP=1.65D-07 DE= 1.36D-10 OVMax= 4.97D-07

 SCF Done:  E(RPBE1PBE) =  -7517.81704939     A.U. after   13 cycles
            NFock= 13  Conv=0.32D-08     -V/T= 2.1284
 KE= 6.662159368980D+03 PE=-2.481799804055D+04 EE= 7.024657016953D+03
 Leave Link  502 at Tue Mar  6 15:38:12 2018, MaxMem=   536870912 cpu:      2825.9
 (Enter /share/apps//mg09/l701.exe)
 Compute integral first derivatives.
 ... and contract with generalized density number  0.
   1 Symmetry operations used in ECPInt.
 ECPInt:  NShTT=   10440 NPrTT=   41973 LenC2=    9705 LenP2D=   27620.
 LDataN:  DoStor=T MaxTD1= 9 Len=  602
 Leave Link  701 at Tue Mar  6 15:38:36 2018, MaxMem=   536870912 cpu:        89.9
 (Enter /share/apps//mg09/l702.exe)
 L702 exits ... SP integral derivatives will be done elsewhere.
 Leave Link  702 at Tue Mar  6 15:38:36 2018, MaxMem=   536870912 cpu:         0.1
 (Enter /share/apps//mg09/l703.exe)
 Compute integral first derivatives, UseDBF=F ICtDFT=           0.
 Integral derivatives from FoFJK, PRISM(SPDF).
 Calling FoFJK, ICntrl=      2127 FMM=F ISym2X=0 I1Cent= 0 IOpClX= 0 NMat=1 NMatS=1 NMatT=0.
 FoFJK:  IHMeth= 1 ICntrl=    2127 DoSepK=F KAlg= 0 I1Cent=   0 FoldK=F
 IRaf=         0 NMat=   1 IRICut=       1 DoRegI=T DoRafI=F ISym2E= 0.
 FoFCou: FMM=F IPFlag=           0 FMFlag=      100000 FMFlg1=         800
         NFxFlg=           0 DoJE=F BraDBF=F KetDBF=F FulRan=T
         wScrn=  0.000000 ICntrl=    2127 IOpCl=  0 I1Cent=           0 NGrid=           0
         NMat0=    1 NMatS0=      1 NMatT0=    0 NMatD0=    1 NMtDS0=    0 NMtDT0=    0
 Symmetry not used in FoFCou.
 Defaulting to unpruned grid for atomic number  50.
 Defaulting to unpruned grid for atomic number  50.
 Defaulting to unpruned grid for atomic number  50.
 Defaulting to unpruned grid for atomic number  50.
 Leave Link  703 at Tue Mar  6 15:42:58 2018, MaxMem=   536870912 cpu:       944.1
 (Enter /share/apps//mg09/l716.exe)
 Dipole        = 4.67597572D-01-7.63690938D-01-5.50349042D-02
 ***** Axes restored to original set *****
 -------------------------------------------------------------------
 Center     Atomic                   Forces (Hartrees/Bohr)
 Number     Number              X              Y              Z
 -------------------------------------------------------------------
      1       50          -0.007811547   -0.002410555   -0.000249497
      2       83           0.003002501    0.002324498    0.000374049
      3       50          -0.002106806    0.003853735    0.003850687
      4       83           0.000541779    0.000900784    0.001397040
      5       32           0.004149775   -0.004443569    0.005784151
      6       32          -0.000459451    0.003066843   -0.007168229
      7       83          -0.000186776    0.001784242    0.000425558
      8       32           0.001668293   -0.006935555   -0.003602719
      9       83           0.001202232    0.001859576   -0.000811039
 -------------------------------------------------------------------
 Cartesian Forces:  Max     0.007811547 RMS     0.003458075
 Leave Link  716 at Tue Mar  6 15:42:58 2018, MaxMem=   536870912 cpu:         0.1
 (Enter /share/apps//mg09/l103.exe)

 GradGradGradGradGradGradGradGradGradGradGradGradGradGradGradGradGradGrad
 Berny optimization.
 Search for a local minimum.
 Step number   2 out of a maximum of  100
 All quantities printed in internal units (Hartrees-Bohrs-Radians)
 Update second derivatives using D2CorN and points    1    2
 DE= -6.13D-03 DEPred=-4.49D-03 R= 1.37D+00
 TightC=F SS=  1.41D+00  RLast= 2.29D-01 DXNew= 5.0454D-01 6.8721D-01
 Trust test= 1.37D+00 RLast= 2.29D-01 DXMaxT set to 5.05D-01
 ITU=  1  0
     Eigenvalues ---    0.07622   0.09286   0.11991   0.12306   0.12763
     Eigenvalues ---    0.12932   0.14118   0.15023   0.15807   0.16543
     Eigenvalues ---    0.18355   0.21195   0.21896   0.23115   0.23959
     Eigenvalues ---    0.25793   0.26254   0.28504   0.29133   0.31113
     Eigenvalues ---    0.32149
 RFO step:  Lambda=-5.39574639D-04 EMin= 7.62245205D-02
 Quartic linear search produced a step of  0.63800.
 TrRot=  0.000245 -0.000112 -0.000058  0.755777  0.000076 -0.755816
 MatCor failed.
 Variable       Old X    -DE/DX   Delta X   Delta X   Delta X     New X
                                 (Linear)    (Quad)   (Total)
    X1        4.13183  -0.00781  -0.05062  -0.00983  -0.06007   4.07175
    Y1        3.34432  -0.00241  -0.02483  -0.00084  -0.02594   3.31837
    Z1        0.10562  -0.00025  -0.00182  -0.00045  -0.00272   0.10290
    X2       -3.99452   0.00300   0.03589  -0.00921   0.02707  -3.96745
    Y2        1.53335   0.00232  -0.00294   0.00826   0.00544   1.53880
    Z2        1.50008   0.00037  -0.01236   0.00619  -0.00609   1.49399
    X3        2.75413  -0.00211  -0.02560   0.00498  -0.02061   2.73352
    Y3       -0.10677   0.00385   0.02208   0.01603   0.03767  -0.06911
[...]
      X      X             X        X                                                                                                
      X      X             X        X                                                                                                
      X      X             X        X                                                                                                
      X      X             X        X                                                                                                
      X      X                      X                                                                                                
      X      X                      X                                                                                                
      X                             X                                                                                                
      X                             X                                                                                                
      X                                                                                                                              
      X                                                                                                                              
      X                                                                                                                              
      X                                                                                                                              
      X                                                                                                                              
      X                                                                                                                              
 
 ***** Axes restored to original set *****
 -------------------------------------------------------------------
 Center     Atomic                   Forces (Hartrees/Bohr)
 Number     Number              X              Y              Z
 -------------------------------------------------------------------
      1       50          -0.000079252   -0.000012268    0.000078069
      2       83           0.000027155   -0.000034402    0.000044817
      3       50           0.000020064    0.000010756    0.000011195
      4       83          -0.000057658   -0.000061882    0.000052836
      5       32           0.000068695    0.000055060   -0.000093792
      6       32           0.000061361    0.000069766    0.000059378
      7       83           0.000021010    0.000032536   -0.000025644
      8       32          -0.000058571   -0.000037956   -0.000118549
      9       83          -0.000002804   -0.000021609   -0.000008311
 -------------------------------------------------------------------
 Cartesian Forces:  Max     0.000118549 RMS     0.000053533
 Force constants in Cartesian coordinates: 
                1             2             3             4             5 
      1  0.688995D-01
      2 -0.248809D-03  0.632507D-01
      3 -0.358558D-02  0.976564D-02  0.411344D-01
      4 -0.702394D-02 -0.231823D-05  0.685052D-03  0.819790D-01
      5 -0.470450D-02 -0.388056D-02  0.270497D-02  0.162510D-02  0.683514D-01
      6 -0.193186D-02  0.209907D-02 -0.292986D-02 -0.101486D-01  0.150938D-01
      7 -0.209490D-02 -0.697369D-02 -0.536263D-02 -0.203306D-02  0.327657D-02
      8 -0.328077D-02 -0.824159D-02 -0.166534D-01  0.186480D-02 -0.505433D-03
      9 -0.287425D-02 -0.156567D-01 -0.188447D-01  0.407138D-03  0.932646D-03
     10 -0.246220D-02 -0.806358D-02  0.300636D-02 -0.132240D-01  0.127349D-01
     11 -0.809862D-03 -0.102014D-02 -0.971228D-03  0.153146D-01 -0.328500D-01
     12 -0.708529D-03 -0.171324D-02 -0.203419D-02 -0.447871D-03  0.195220D-02
     13 -0.174006D-01  0.410413D-02 -0.132598D-01 -0.505799D-02  0.256393D-03
     14 -0.487478D-03 -0.275883D-02  0.591304D-03 -0.159224D-02 -0.397931D-02
     15 -0.112366D-01  0.360256D-02 -0.562513D-02  0.597758D-02  0.509283D-02
     16 -0.264402D-02 -0.446342D-02  0.466432D-02 -0.123547D-01  0.552464D-02
     17 -0.412485D-02 -0.249844D-02  0.332224D-02  0.358549D-02  0.344404D-02
     18  0.220181D-02  0.299424D-02 -0.864632D-02 -0.546916D-02 -0.747831D-03
     19 -0.262189D-02  0.373879D-03 -0.386859D-03 -0.370873D-02  0.642560D-02
     20  0.323724D-02 -0.353623D-01  0.771882D-02 -0.158442D-03  0.180540D-02
     21  0.410595D-03  0.719840D-02  0.194527D-02  0.164117D-02 -0.333297D-02
     22 -0.297151D-01  0.157937D-01  0.169428D-01 -0.314329D-01 -0.261438D-01
     23  0.111715D-01 -0.561445D-02 -0.692897D-02 -0.239288D-01 -0.248634D-01
     24  0.152856D-01 -0.898009D-02 -0.552490D-02 -0.286382D-02 -0.564731D-02
     25 -0.493679D-02 -0.519861D-03 -0.270371D-02 -0.714378D-02  0.100509D-02
     26 -0.752448D-03 -0.387442D-02  0.450637D-03  0.329183D-02 -0.752218D-02
     27  0.243888D-02  0.690135D-03  0.525509D-03  0.102185D-01 -0.160483D-01
                6             7             8             9            10 
      6  0.470494D-01
      7  0.833107D-02  0.590018D-01
      8  0.550333D-03 -0.160077D-02  0.373884D-01
      9 -0.291585D-02 -0.682880D-02  0.131985D-01  0.623183D-01
     10 -0.893868D-03 -0.146323D-02 -0.234448D-02  0.840139D-03  0.681695D-01
     11  0.380667D-02  0.953783D-03 -0.283901D-03 -0.642228D-03  0.643114D-02
     12  0.441879D-02  0.166207D-02  0.481179D-02 -0.198797D-02  0.387631D-02
     13  0.810382D-02 -0.949799D-02  0.127575D-01  0.463381D-02 -0.120942D-03
     14  0.535038D-02  0.125932D-01 -0.142429D-01 -0.250325D-02  0.572726D-02
     15 -0.697378D-02  0.502485D-02 -0.696354D-02 -0.537196D-02  0.126239D-03
     16 -0.660090D-02  0.534590D-03 -0.299358D-02  0.516126D-02 -0.375165D-03
     17 -0.113619D-02 -0.260090D-02  0.362671D-04 -0.276647D-02 -0.653810D-02
     18 -0.723650D-02 -0.243294D-02  0.261202D-05 -0.589817D-02 -0.580830D-02
     19 -0.260493D-02 -0.291794D-02  0.340464D-02 -0.381200D-02 -0.492634D-01
     20 -0.845702D-03  0.464963D-02 -0.812634D-02  0.924117D-02 -0.103408D-01
     21 -0.108941D-02 -0.463279D-02  0.729412D-02 -0.223799D-01  0.820397D-02
     22 -0.268860D-02 -0.433858D-02  0.155416D-02 -0.756486D-03  0.862199D-03
     23 -0.601214D-02 -0.568916D-03 -0.207766D-02  0.209756D-03  0.115026D-02
     24  0.274430D-03 -0.137547D-02 -0.131590D-02 -0.254460D-02 -0.186743D-03
     25  0.843391D-02 -0.371907D-01 -0.936154D-02  0.322919D-02 -0.212278D-02
     26 -0.189062D-01 -0.972895D-02 -0.394688D-02 -0.201344D-02  0.124346D-02
     27 -0.305973D-01  0.561464D-02 -0.924533D-03 -0.237507D-02 -0.916411D-02
               11            12            13            14            15 
     11  0.792955D-01
     12 -0.165178D-01  0.405033D-01
     13 -0.281481D-03  0.470658D-02  0.403430D-01
     14 -0.476925D-02  0.783578D-02 -0.457338D-02  0.588788D-01
     15  0.136744D-02 -0.245807D-02  0.803683D-02 -0.162344D-02  0.563454D-01
     16 -0.946123D-02 -0.634417D-02 -0.407733D-02 -0.237892D-02 -0.256605D-02
     17 -0.169623D-01 -0.509560D-02 -0.111475D-02 -0.238475D-02  0.610453D-02
     18 -0.505839D-02 -0.547244D-02 -0.781106D-03  0.706275D-04 -0.635039D-02
     19 -0.109397D-01  0.659361D-02 -0.161249D-02 -0.120390D-02 -0.116590D-03
     20 -0.803881D-02  0.141303D-02  0.135086D-02 -0.502515D-02  0.152681D-02
     21  0.225331D-02  0.200092D-03 -0.533698D-02  0.237917D-02 -0.143406D-02
     22 -0.288954D-02 -0.493116D-03 -0.613391D-03  0.151303D-03 -0.165118D-02
     23 -0.481752D-02 -0.299376D-02  0.923978D-04 -0.532656D-02 -0.527971D-02
     24  0.124921D-02 -0.207071D-02 -0.623037D-03 -0.909760D-02 -0.249201D-01
     25  0.168231D-02 -0.884488D-02 -0.196226D-02 -0.823587D-02 -0.359506D-02
     26 -0.105536D-01  0.103076D-01 -0.125917D-01 -0.203921D-01 -0.382748D-02
     27  0.145131D-01 -0.310988D-01 -0.548016D-02 -0.300298D-02 -0.321185D-02
               16            17            18            19            20 
     16  0.338564D-01
     17 -0.719816D-02  0.525990D-01
     18  0.272501D-02  0.334565D-02  0.648984D-01
     19 -0.103870D-01  0.990886D-02  0.102651D-01  0.775458D-01
     20  0.113112D-01 -0.112989D-01 -0.905504D-02 -0.101035D-01  0.685374D-01
     21  0.100044D-01 -0.900194D-02 -0.173749D-01 -0.945035D-02 -0.912316D-02
     22 -0.282240D-02  0.604965D-02 -0.227978D-02 -0.290483D-02  0.285036D-02
     23  0.619965D-02 -0.249385D-01  0.714343D-02 -0.877958D-03 -0.368499D-02
     24 -0.207419D-02  0.110506D-01 -0.780459D-02 -0.404542D-04 -0.370755D-04
     25 -0.173035D-02  0.203276D-02  0.157938D-02 -0.412938D-02 -0.279655D-02
     26  0.345977D-02  0.200357D-02  0.130470D-02  0.301210D-02  0.119369D-02
     27 -0.496966D-02 -0.582286D-02 -0.611508D-02 -0.447528D-03 -0.838855D-03
               21            22            23            24            25 
     21  0.417668D-01
     22  0.317088D-02  0.688501D-01
     23 -0.120552D-02  0.542813D-02  0.753597D-01
     24  0.684086D-03 -0.821790D-02  0.157467D-01  0.444458D-01
     25 -0.401089D-02  0.211488D-02  0.133375D-02  0.960600D-04  0.571012D-01
     26  0.353860D-02 -0.279396D-02 -0.403663D-02 -0.296854D-02  0.148599D-01
     27 -0.231799D-02 -0.402662D-02 -0.679743D-03 -0.253938D-02  0.581601D-02
               26            27 
     26  0.471285D-01
     27  0.121141D-01  0.777299D-01
 Leave Link  716 at Tue Mar  6 18:47:43 2018, MaxMem=   536870912 cpu:         0.1
 (Enter /share/apps//mg09/l103.exe)

 GradGradGradGradGradGradGradGradGradGradGradGradGradGradGradGradGradGrad
 Berny optimization.
 Search for a local minimum.
 Step number   1 out of a maximum of    2
 All quantities printed in internal units (Hartrees-Bohrs-Radians)
 Second derivative matrix not updated -- analytic derivatives used.
 ITU=  0
     Eigenvalues ---    0.00942   0.01773   0.02993   0.03938   0.04191
     Eigenvalues ---    0.04539   0.05190   0.05373   0.05679   0.06014
     Eigenvalues ---    0.06787   0.07322   0.07679   0.08339   0.10134
     Eigenvalues ---    0.10679   0.11248   0.12893   0.13423   0.14110
     Eigenvalues ---    0.14812
 Angle between quadratic step and forces=  38.84 degrees.
 Linear search not attempted -- first point.
 TrRot=  0.000068  0.000065 -0.000119  0.000002 -0.000006  0.000002
 Variable       Old X    -DE/DX   Delta X   Delta X   Delta X     New X
                                 (Linear)    (Quad)   (Total)
    X1        4.06456  -0.00008   0.00000  -0.00081  -0.00076   4.06381
    Y1        3.30301  -0.00001   0.00000  -0.00134  -0.00126   3.30175
    Z1        0.12871   0.00008   0.00000   0.00431   0.00422   0.13293
    X2       -3.99234   0.00003   0.00000   0.00012   0.00017  -3.99217
    Y2        1.53631  -0.00003   0.00000  -0.00266  -0.00261   1.53370
    Z2        1.50259   0.00004   0.00000   0.00285   0.00271   1.50530
    X3        2.73578   0.00002   0.00000  -0.00020  -0.00011   2.73568
    Y3       -0.04369   0.00001   0.00000   0.00140   0.00148  -0.04221
    Z3       -4.20744   0.00001   0.00000  -0.00024  -0.00034  -4.20778
    X4       -1.41752  -0.00006   0.00000  -0.00115  -0.00107  -1.41859
    Y4       -3.59319  -0.00006   0.00000  -0.00118  -0.00112  -3.59431
    Z4        1.77409   0.00005   0.00000   0.00044   0.00032   1.77440
    X5       -0.65354   0.00007   0.00000   0.00297   0.00303  -0.65051
    Y5        3.84782   0.00006   0.00000   0.00119   0.00125   3.84907
    Z5       -2.67287  -0.00009   0.00000  -0.00213  -0.00225  -2.67512
    X6        1.00229   0.00006   0.00000   0.00296   0.00301   1.00529
    Y6        0.70785   0.00007   0.00000   0.00179   0.00185   0.70970
    Z6        4.38789   0.00006   0.00000   0.00026   0.00015   4.38804
    X7        3.99580   0.00002   0.00000  -0.00089  -0.00082   3.99498
    Y7       -2.28617   0.00003   0.00000  -0.00127  -0.00119  -2.28736
    Z7        1.01376  -0.00003   0.00000  -0.00171  -0.00180   1.01195
    X8       -0.30415  -0.00006   0.00000  -0.00283  -0.00280  -0.30695
    Y8        5.07420  -0.00004   0.00000   0.00034   0.00041   5.07461
    Z8        2.26569  -0.00012   0.00000  -0.00350  -0.00362   2.26206
    X9       -2.69290   0.00000   0.00000  -0.00075  -0.00066  -2.69356
    Y9       -1.23938  -0.00002   0.00000   0.00114   0.00119  -1.23818
    Z9       -3.33236  -0.00001   0.00000   0.00076   0.00062  -3.33173
         Item               Value     Threshold  Converged?
 Maximum Force            0.000119     0.000450     YES
 RMS     Force            0.000054     0.000300     YES
 Maximum Displacement     0.004217     0.001800     NO 
 RMS     Displacement     0.001885     0.001200     NO 
 Predicted change in Energy=-1.066392D-06
 GradGradGradGradGradGradGradGradGradGradGradGradGradGradGradGradGradGrad

 Leave Link  103 at Tue Mar  6 18:47:43 2018, MaxMem=   536870912 cpu:         0.1
 (Enter /share/apps//mg09/l9999.exe)
 1\1\GINC-COMPUTE-0-6\Freq\RPBE1PBE\def2TZVP\Bi4Ge3Sn2\RODRIGO\06-Mar-2
 018\0\\#P Geom=AllCheck Guess=TCheck SCRF=Check GenChk RPBE1PBE/def2TZ
 VP Freq\\01Final_coords.xyz_42\\0,1\Sn,2.1508750525,1.7478761391,0.068
 1113604\Bi,-2.1126561119,0.8129821531,0.7951358527\Sn,1.4477135931,-0.
 0231171075,-2.2264805737\Bi,-0.7501190815,-1.9014334415,0.9388068946\G
 e,-0.3458399275,2.0361801174,-1.4144232384\Ge,0.5303873141,0.374577043
 ,2.3219694188\Bi,2.1144869183,-1.2097905899,0.5364569263\Ge,-0.1609507
 931,2.685150916,1.1989488912\Bi,-1.4250209625,-0.6558492303,-1.7634065
 319\\Version=ES64L-G09RevD.01\State=1-A\HF=-7517.8187805\RMSD=6.217e-0
 9\RMSF=5.353e-05\ZeroPoint=0.0058333\Thermal=0.0232908\Dipole=-0.49067
 05,-0.8070499,0.074473\DipoleDeriv=0.203638,0.2392537,0.047109,0.16094
 73,0.092237,-0.0240573,0.0244064,-0.0010851,0.013939,0.0794885,-0.0087
 935,-0.0102137,-0.0234527,0.0550476,0.0251846,0.0423642,0.0005199,0.05
 98983,0.0039306,-0.023412,-0.1946749,0.0040213,-0.021422,0.0146364,-0.
 1293793,-0.0092702,0.2273463,-0.0524815,0.0389313,-0.0527384,0.034391,
 0.0024679,-0.0203784,-0.0497023,-0.0029508,0.0452577,-0.0339971,-0.081
 2997,-0.0077245,-0.0362703,-0.0467927,-0.0870945,-0.0326377,-0.0769363
 ,-0.051289,0.0356451,-0.0381807,0.0301698,-0.060429,-0.0645637,-0.0271
 77,0.0000442,-0.0104601,0.0310691,0.0024767,-0.0910475,0.0843558,-0.00
 4402,-0.0864492,-0.0119746,0.0998075,0.0030106,-0.1580821,-0.1994956,-
 0.0413897,-0.0186764,-0.0588445,0.1147424,0.1630964,-0.0229604,0.11105
 59,-0.1032404,-0.0392048,0.0059382,0.1223932,-0.0159611,-0.0452673,-0.
 0322356,0.0680573,-0.0138839,-0.064899\Polar=387.1412083,6.3880365,374
 .045728,-5.6922798,4.9396221,372.1463645\PG=C01 [X(Bi4Ge3Sn2)]\NImag=0
 \\0.06889946,-0.00024881,0.06325073,-0.00358558,0.00976564,0.04113436,
 -0.00702394,-0.00000232,0.00068505,0.08197905,-0.00470450,-0.00388056,
 0.00270497,0.00162510,0.06835139,-0.00193186,0.00209907,-0.00292986,-0
 .01014863,0.01509382,0.04704944,-0.00209490,-0.00697369,-0.00536263,-0
 .00203306,0.00327657,0.00833107,0.05900180,-0.00328077,-0.00824159,-0.
 01665341,0.00186480,-0.00050543,0.00055033,-0.00160077,0.03738842,-0.0
 0287425,-0.01565672,-0.01884475,0.00040714,0.00093265,-0.00291585,-0.0
 0682880,0.01319854,0.06231828,-0.00246220,-0.00806358,0.00300636,-0.01
 322398,0.01273486,-0.00089387,-0.00146323,-0.00234448,0.00084014,0.068
 16954,-0.00080986,-0.00102014,-0.00097123,0.01531458,-0.03284997,0.003
 80667,0.00095378,-0.00028390,-0.00064223,0.00643114,0.07929548,-0.0007
 0853,-0.00171324,-0.00203419,-0.00044787,0.00195220,0.00441879,0.00166
 207,0.00481179,-0.00198797,0.00387631,-0.01651783,0.04050332,-0.017400
 61,0.00410413,-0.01325976,-0.00505799,0.00025639,0.00810382,-0.0094979
 9,0.01275754,0.00463381,-0.00012094,-0.00028148,0.00470658,0.04034300,
 -0.00048748,-0.00275883,0.00059130,-0.00159224,-0.00397931,0.00535038,
 0.01259323,-0.01424288,-0.00250325,0.00572726,-0.00476925,0.00783578,-
 0.00457338,0.05887883,-0.01123662,0.00360256,-0.00562513,0.00597758,0.
 00509283,-0.00697378,0.00502485,-0.00696354,-0.00537196,0.00012624,0.0
 0136744,-0.00245807,0.00803683,-0.00162344,0.05634538,-0.00264402,-0.0
 0446342,0.00466432,-0.01235471,0.00552464,-0.00660090,0.00053459,-0.00
 299358,0.00516126,-0.00037516,-0.00946123,-0.00634417,-0.00407733,-0.0
 0237892,-0.00256605,0.03385643,-0.00412485,-0.00249844,0.00332224,0.00
 358549,0.00344404,-0.00113619,-0.00260090,0.00003627,-0.00276647,-0.00
 653810,-0.01696235,-0.00509560,-0.00111475,-0.00238475,0.00610453,-0.0
 0719816,0.05259905,0.00220181,0.00299424,-0.00864632,-0.00546916,-0.00
 074783,-0.00723650,-0.00243294,0.00000261,-0.00589817,-0.00580830,-0.0
 0505839,-0.00547244,-0.00078111,0.00007063,-0.00635039,0.00272501,0.00
 334565,0.06489840,-0.00262189,0.00037388,-0.00038686,-0.00370873,0.006
 42560,-0.00260493,-0.00291794,0.00340464,-0.00381200,-0.04926344,-0.01
 093971,0.00659361,-0.00161249,-0.00120390,-0.00011659,-0.01038705,0.00
 990886,0.01026509,0.07754575,0.00323724,-0.03536232,0.00771882,-0.0001
 5844,0.00180540,-0.00084570,0.00464963,-0.00812634,0.00924117,-0.01034
 083,-0.00803881,0.00141303,0.00135086,-0.00502515,0.00152681,0.0113112
 4,-0.01129891,-0.00905504,-0.01010352,0.06853743,0.00041059,0.00719840
 ,0.00194527,0.00164117,-0.00333297,-0.00108941,-0.00463279,0.00729412,
 -0.02237991,0.00820397,0.00225331,0.00020009,-0.00533698,0.00237917,-0
 .00143406,0.01000439,-0.00900194,-0.01737491,-0.00945035,-0.00912316,0
 .04176681,-0.02971512,0.01579367,0.01694281,-0.03143287,-0.02614378,-0
 .00268860,-0.00433858,0.00155416,-0.00075649,0.00086220,-0.00288954,-0
 .00049312,-0.00061339,0.00015130,-0.00165118,-0.00282240,0.00604965,-0
 .00227978,-0.00290483,0.00285036,0.00317088,0.06885010,0.01117148,-0.0
 0561445,-0.00692897,-0.02392880,-0.02486339,-0.00601214,-0.00056892,-0
 .00207766,0.00020976,0.00115026,-0.00481752,-0.00299376,0.00009240,-0.
 00532656,-0.00527971,0.00619965,-0.02493848,0.00714343,-0.00087796,-0.
 00368499,-0.00120552,0.00542813,0.07535967,0.01528556,-0.00898009,-0.0
 0552490,-0.00286382,-0.00564731,0.00027443,-0.00137547,-0.00131590,-0.
 00254460,-0.00018674,0.00124921,-0.00207071,-0.00062304,-0.00909760,-0
 .02492015,-0.00207419,0.01105065,-0.00780459,-0.00004045,-0.00003708,0
 .00068409,-0.00821790,0.01574666,0.04444582,-0.00493679,-0.00051986,-0
 .00270371,-0.00714378,0.00100509,0.00843391,-0.03719070,-0.00936154,0.
 00322919,-0.00212278,0.00168231,-0.00884488,-0.00196226,-0.00823587,-0
 .00359506,-0.00173035,0.00203276,0.00157938,-0.00412938,-0.00279655,-0
 .00401089,0.00211488,0.00133375,0.00009606,0.05710117,-0.00075245,-0.0
 0387442,0.00045064,0.00329183,-0.00752218,-0.01890625,-0.00972895,-0.0
 0394688,-0.00201344,0.00124346,-0.01055355,0.01030765,-0.01259170,-0.0
 2039211,-0.00382748,0.00345977,0.00200357,0.00130470,0.00301210,0.0011
 9369,0.00353860,-0.00279396,-0.00403663,-0.00296854,0.01485990,0.04712
 850,0.00243888,0.00069014,0.00052551,0.01021854,-0.01604835,-0.0305972
 6,0.00561464,-0.00092453,-0.00237507,-0.00916411,0.01451305,-0.0310988
 3,-0.00548016,-0.00300298,-0.00321185,-0.00496966,-0.00582286,-0.00611
 508,-0.00044753,-0.00083886,-0.00231799,-0.00402662,-0.00067974,-0.002
 53938,0.00581601,0.01211413,0.07772994\\0.00007925,0.00001227,-0.00007
 807,-0.00002716,0.00003440,-0.00004482,-0.00002006,-0.00001076,-0.0000
 1120,0.00005766,0.00006188,-0.00005284,-0.00006869,-0.00005506,0.00009
 379,-0.00006136,-0.00006977,-0.00005938,-0.00002101,-0.00003254,0.0000
 2564,0.00005857,0.00003796,0.00011855,0.00000280,0.00002161,0.00000831
 \\\@


 SUCCESS-- IF YOU HAVE TRIED TO DO SOMETHING AND FAILED
           YOU ARE BETTER OFF THAN IF YOU HAD TRIED TO DO
           NOTHING AND SUCCEEDED.

                   -- FROM THE BACK OF A SUGAR PACKET
 Job cpu time:       0 days  4 hours 35 minutes 52.2 seconds.
 File lengths (MBytes):  RWF=    299 Int=      0 D2E=      0 Chk=     16 Scr=      1
 Normal termination of Gaussian 09 at Tue Mar  6 18:47:45 2018.
