 Entering Gaussian System, Link 0=/share/apps/mg09/g09
 Initial command:
 /share/apps//mg09/l1.exe "/state/partition1/gauss_tmp/Gau-10620.inp" -scrdir="/state/partition1/gauss_tmp/"
 Entering Link 1 = /share/apps//mg09/l1.exe PID=     10622.
  
 Copyright (c) 1988,1990,1992,1993,1995,1998,2003,2009,2013,
            Gaussian, Inc.  All Rights Reserved.
  
 This is part of the Gaussian(R) 09 program.  It is based on
 the Gaussian(R) 03 system (copyright 2003, Gaussian, Inc.),
 the Gaussian(R) 98 system (copyright 1998, Gaussian, Inc.),
 the Gaussian(R) 94 system (copyright 1995, Gaussian, Inc.),
 the Gaussian 92(TM) system (copyright 1992, Gaussian, Inc.),
 the Gaussian 90(TM) system (copyright 1990, Gaussian, Inc.),
 the Gaussian 88(TM) system (copyright 1988, Gaussian, Inc.),
 the Gaussian 86(TM) system (copyright 1986, Carnegie Mellon
 University), and the Gaussian 82(TM) system (copyright 1983,
 Carnegie Mellon University). Gaussian is a federally registered
 trademark of Gaussian, Inc.
  
 This software contains proprietary and confidential information,
 including trade secrets, belonging to Gaussian, Inc.
  
 This software is provided under written license and may be
 used, copied, transmitted, or stored only in accord with that
 written license.
  
 The following legend is applicable only to US Government
 contracts under FAR:
  
                    RESTRICTED RIGHTS LEGEND
  
 Use, reproduction and disclosure by the US Government is
 subject to restrictions as set forth in subparagraphs (a)
 and (c) of the Commercial Computer Software - Restricted
 Rights clause in FAR 52.227-19.
  
 Gaussian, Inc.
 340 Quinnipiac St., Bldg. 40, Wallingford CT 06492
  
  
 ---------------------------------------------------------------
 Warning -- This program may not be used in any manner that
 competes with the business of Gaussian, Inc. or will provide
 assistance to any competitor of Gaussian, Inc.  The licensee
 of this program is prohibited from giving any competitor of
 Gaussian, Inc. access to this program.  By using this program,
 the user acknowledges that Gaussian, Inc. is engaged in the
 business of creating and licensing software in the field of
 computational chemistry and represents and warrants to the
 licensee that it is not a competitor of Gaussian, Inc. and that
 it will not use this program in any manner prohibited above.
 ---------------------------------------------------------------
  

 Cite this work as:
 Gaussian 09, Revision D.01,
 M. J. Frisch, G. W. Trucks, H. B. Schlegel, G. E. Scuseria, 
 M. A. Robb, J. R. Cheeseman, G. Scalmani, V. Barone, B. Mennucci, 
 G. A. Petersson, H. Nakatsuji, M. Caricato, X. Li, H. P. Hratchian, 
 A. F. Izmaylov, J. Bloino, G. Zheng, J. L. Sonnenberg, M. Hada, 
 M. Ehara, K. Toyota, R. Fukuda, J. Hasegawa, M. Ishida, T. Nakajima, 
 Y. Honda, O. Kitao, H. Nakai, T. Vreven, J. A. Montgomery, Jr., 
 J. E. Peralta, F. Ogliaro, M. Bearpark, J. J. Heyd, E. Brothers, 
 K. N. Kudin, V. N. Staroverov, T. Keith, R. Kobayashi, J. Normand, 
 K. Raghavachari, A. Rendell, J. C. Burant, S. S. Iyengar, J. Tomasi, 
 M. Cossi, N. Rega, J. M. Millam, M. Klene, J. E. Knox, J. B. Cross, 
 V. Bakken, C. Adamo, J. Jaramillo, R. Gomperts, R. E. Stratmann, 
 O. Yazyev, A. J. Austin, R. Cammi, C. Pomelli, J. W. Ochterski, 
 R. L. Martin, K. Morokuma, V. G. Zakrzewski, G. A. Voth, 
 P. Salvador, J. J. Dannenberg, S. Dapprich, A. D. Daniels, 
 O. Farkas, J. B. Foresman, J. V. Ortiz, J. Cioslowski, 
 and D. J. Fox, Gaussian, Inc., Wallingford CT, 2013.
 
 ******************************************
 Gaussian 09:  ES64L-G09RevD.01 24-Apr-2013
                 6-Mar-2018 
 ******************************************
 %NProcShared=4
 Will use up to    4 processors via shared memory.
 %LindaWorkers=compute-0-1
 %chk=Isomer_55.chk
 %NProc=4
 Will use up to    4 processors via shared memory.
 %mem=4GB
 SetLPE:  input flags=" -vv -opt "Tsnet.Node.lindarsharg: ssh" "
 SetLPE:    new flags=" -vv -opt "Tsnet.Node.lindarsharg: ssh"  -nodelist 'compute-0-1.local'"
 Will use up to    1 processors via Linda.
 ----------------------------------------------------------------------
 #p PBE1PBE/Def2TZVP scf=(maxcycle=768) opt=(cartesian,maxcycle=512) fr
 eq
 ----------------------------------------------------------------------
 1/6=512,10=7,14=-1,18=10,26=3,38=1/1,3;
 2/12=2,17=6,18=5,29=2,40=1/2;
 3/5=44,7=101,11=2,16=1,25=1,30=1,71=1,74=-13/1,2,3;
 4//1;
 5/5=2,7=768,38=5/2;
 6/7=2,8=2,9=2,10=2,28=1/1;
 7/7=1,29=1/1,2,3,16;
 1/6=512,10=7,14=-1,18=10,26=3/3(2);
 2/29=1/2;
 99/12=1/99;
 2/29=1/2;
 3/5=44,7=101,11=2,16=1,25=1,30=1,71=1,74=-13/1,2,3;
 4/5=5,16=3,69=1/1;
 5/5=2,7=768,38=5/2;
 7/7=1/1,2,3,16;
 1/6=512,14=-1,18=10,26=3/3(-5);
 2/29=1/2;
 6/7=2,8=2,9=2,10=2,19=2,28=1/1;
 99/9=1,12=1/99;
 Leave Link    1 at Tue Mar  6 16:08:13 2018, MaxMem=   536870912 cpu:         0.2
 (Enter /share/apps//mg09/l101.exe)
 ---------------------
 01Final_coords.xyz_55
 ---------------------
 Symbolic Z-matrix:
 Charge =  0 Multiplicity = 1
 32                   -0.56477  -1.37566   2.25408 
 83                    1.23067   2.10829  -0.14526 
 50                    2.1142   -0.32491   1.62501 
 50                    2.33675  -0.28799  -1.62892 
 83                   -2.21805  -1.17305  -0.16624 
 83                   -1.77369   1.78248  -0.27662 
 32                   -0.48556  -0.01039  -2.25854 
 83                    0.58711  -2.34434  -0.27202 
 32                   -0.26557   1.37528   2.24156 
 
 NAtoms=      9 NQM=        9 NQMF=       0 NMMI=      0 NMMIF=      0
                NMic=       0 NMicF=      0.
                    Isotopes and Nuclear Properties:
 (Nuclear quadrupole moments (NQMom) in fm**2, nuclear magnetic moments (NMagM)
  in nuclear magnetons)

  Atom         1           2           3           4           5           6           7           8           9
 IAtWgt=          74         209         118         118         209         209          74         209          74
 AtmWgt=  73.9211788 208.9804000 117.9018000 117.9018000 208.9804000 208.9804000  73.9211788 208.9804000  73.9211788
 NucSpn=           0           9           0           0           9           9           0           9           0
 AtZEff=   0.0000000   0.0000000   0.0000000   0.0000000   0.0000000   0.0000000   0.0000000   0.0000000   0.0000000
 NQMom=    0.0000000 -51.6000000   0.0000000   0.0000000 -51.6000000 -51.6000000   0.0000000 -51.6000000   0.0000000
 NMagM=    0.0000000   4.1106000   0.0000000   0.0000000   4.1106000   4.1106000   0.0000000   4.1106000   0.0000000
 AtZNuc=  32.0000000  83.0000000  50.0000000  50.0000000  83.0000000  83.0000000  32.0000000  83.0000000  32.0000000
 Leave Link  101 at Tue Mar  6 16:08:13 2018, MaxMem=   536870912 cpu:         0.3
 (Enter /share/apps//mg09/l103.exe)

 GradGradGradGradGradGradGradGradGradGradGradGradGradGradGradGradGradGrad
 Berny optimization.
 Initialization pass.
 No Z-matrix variables, so optimization will use Cartesian coordinates.
 Trust Radius=3.00D-01 FncErr=1.00D-07 GrdErr=1.00D-06
 Number of steps in this run=    100 maximum allowed number of steps=    100.
 GradGradGradGradGradGradGradGradGradGradGradGradGradGradGradGradGradGrad

 Leave Link  103 at Tue Mar  6 16:08:13 2018, MaxMem=   536870912 cpu:         0.0
 (Enter /share/apps//mg09/l202.exe)
 ---------------------------------------------------------------------------------------------------
                            Z-MATRIX (ANGSTROMS AND DEGREES)
   CD    Cent   Atom    N1       Length/X        N2       Alpha/Y        N3        Beta/Z          J
 ---------------------------------------------------------------------------------------------------
      1      1  Ge       0  -0.564773         -1.375661          2.254077
      2      2  Bi       0   1.230671          2.108286         -0.145262
      3      3  Sn       0   2.114196         -0.324914          1.625008
      4      4  Sn       0   2.336752         -0.287993         -1.628921
      5      5  Bi       0  -2.218046         -1.173049         -0.166235
      6      6  Bi       0  -1.773689          1.782479         -0.276622
      7      7  Ge       0  -0.485561         -0.010394         -2.258541
      8      8  Bi       0   0.587106         -2.344342         -0.272019
      9      9  Ge       0  -0.265569          1.375281          2.241561
 ---------------------------------------------------------------------------------------------------
                         Z-Matrix orientation:                         
 ---------------------------------------------------------------------
 Center     Atomic      Atomic             Coordinates (Angstroms)
 Number     Number       Type             X           Y           Z
 ---------------------------------------------------------------------
      1         32           0       -0.564773   -1.375661    2.254077
      2         83           0        1.230671    2.108286   -0.145262
      3         50           0        2.114196   -0.324914    1.625008
      4         50           0        2.336752   -0.287993   -1.628921
      5         83           0       -2.218046   -1.173049   -0.166235
      6         83           0       -1.773689    1.782479   -0.276622
      7         32           0       -0.485561   -0.010394   -2.258541
      8         83           0        0.587106   -2.344342   -0.272019
      9         32           0       -0.265569    1.375281    2.241561
 ---------------------------------------------------------------------
                    Distance matrix (angstroms):
                    1          2          3          4          5
     1  Ge   0.000000
     2  Bi   4.595469   0.000000
     3  Sn   2.945619   3.136070   0.000000
     4  Sn   4.967851   3.027674   3.261740   0.000000
     5  Bi   2.938073   4.760383   4.764053   4.865075   0.000000
     6  Bi   4.223714   3.024828   4.813829   4.797009   2.990783
     7  Ge   4.715289   3.449667   4.683974   2.904984   2.954829
     8  Bi   2.940464   4.500682   3.163670   3.021757   3.041709
     9  Ge   2.767194   2.910834   2.988993   4.951685   4.012933
                    6          7          8          9
     6  Bi   0.000000
     7  Ge   2.966761   0.000000
     8  Bi   4.754369   3.247183   0.000000
     9  Ge   2.963357   4.713747   4.569544   0.000000
 Stoichiometry    Bi4Ge3Sn2
 Framework group  C1[X(Bi4Ge3Sn2)]
 Deg. of freedom    21
 Full point group                 C1      NOp   1
 Largest Abelian subgroup         C1      NOp   1
 Largest concise Abelian subgroup C1      NOp   1
                         Standard orientation:                         
 ---------------------------------------------------------------------
 Center     Atomic      Atomic             Coordinates (Angstroms)
 Number     Number       Type             X           Y           Z
 ---------------------------------------------------------------------
      1         32           0       -0.564784   -1.375656    2.254077
      2         83           0        1.230687    2.108277   -0.145262
      3         50           0        2.114193   -0.324930    1.625008
      4         50           0        2.336750   -0.288011   -1.628921
      5         83           0       -2.218055   -1.173032   -0.166235
      6         83           0       -1.773675    1.782493   -0.276622
      7         32           0       -0.485561   -0.010390   -2.258541
      8         83           0        0.587088   -2.344346   -0.272019
      9         32           0       -0.265558    1.375283    2.241561
 ---------------------------------------------------------------------
 Rotational constants (GHZ):      0.0995096      0.0986646      0.0763238
 Leave Link  202 at Tue Mar  6 16:08:13 2018, MaxMem=   536870912 cpu:         0.1
 (Enter /share/apps//mg09/l301.exe)
 Standard basis: def2TZVP (5D, 7F)
 Ernie: Thresh=  0.10000D-02 Tol=  0.10000D-05 Strict=F.
 There are   519 symmetry adapted cartesian basis functions of A   symmetry.
 There are   444 symmetry adapted basis functions of A   symmetry.
   444 basis functions,   963 primitive gaussians,   519 cartesian basis functions
   116 alpha electrons      116 beta electrons
       nuclear repulsion energy      3526.5791751810 Hartrees.
 IExCor= 1009 DFT=T Ex+Corr=PBE1PBE ExCW=0 ScaHFX=  0.250000
 ScaDFX=  0.750000  0.750000  1.000000  1.000000 ScalE2=  1.000000  1.000000
 IRadAn=      0 IRanWt=     -1 IRanGd=            0 ICorTp=0 IEmpDi=  4
 NAtoms=    9 NActive=    9 NUniq=    9 SFac= 1.00D+00 NAtFMM=   60 NAOKFM=F Big=F
 Integral buffers will be    131072 words long.
 Raffenetti 2 integral format.
 Two-electron integral symmetry is turned on.
 Leave Link  301 at Tue Mar  6 16:08:13 2018, MaxMem=   536870912 cpu:         0.1
 (Enter /share/apps//mg09/l302.exe)
 NPDir=0 NMtPBC=     1 NCelOv=     1 NCel=       1 NClECP=     1 NCelD=      1
         NCelK=      1 NCelE2=     1 NClLst=     1 CellRange=     0.0.
 One-electron integrals computed using PRISM.
   1 Symmetry operations used in ECPInt.
 ECPInt:  NShTT=   10440 NPrTT=   41973 LenC2=    9648 LenP2D=   27446.
 LDataN:  DoStor=T MaxTD1= 8 Len=  415
 NBasis=   444 RedAO= T EigKep=  1.35D-03  NBF=   444
 NBsUse=   444 1.00D-06 EigRej= -1.00D+00 NBFU=   444
 Precomputing XC quadrature grid using
 IXCGrd= 4 IRadAn=           0 IRanWt=          -1 IRanGd=           0 AccXCQ= 0.00D+00.
 Defaulting to unpruned grid for atomic number  50.
 Defaulting to unpruned grid for atomic number  83.
 Defaulting to unpruned grid for atomic number  83.
 Generated NRdTot=       0 NPtTot=           0 NUsed=           0 NTot=          32
 NSgBfM=   501   501   501   501   501 MxSgAt=     9 MxSgA2=     9.
 Leave Link  302 at Tue Mar  6 16:08:21 2018, MaxMem=   536870912 cpu:        31.0
 (Enter /share/apps//mg09/l303.exe)
 DipDrv:  MaxL=1.
 Leave Link  303 at Tue Mar  6 16:08:21 2018, MaxMem=   536870912 cpu:         0.5
 (Enter /share/apps//mg09/l401.exe)
 ExpMin= 4.62D-02 ExpMax= 4.66D+05 ExpMxC= 4.50D+03 IAcc=2 IRadAn=         4 AccDes= 0.00D+00
 Harris functional with IExCor= 1009 and IRadAn=       4 diagonalized for initial guess.
 HarFok:  IExCor= 1009 AccDes= 0.00D+00 IRadAn=         4 IDoV= 1 UseB2=F ITyADJ=14
 ICtDFT=  3500011 ScaDFX=  1.000000  1.000000  1.000000  1.000000
 Defaulting to unpruned grid for atomic number  83.
 Defaulting to unpruned grid for atomic number  83.
 Defaulting to unpruned grid for atomic number  83.
 Defaulting to unpruned grid for atomic number  83.
 FoFCou: FMM=F IPFlag=           0 FMFlag=      100000 FMFlg1=           0
         NFxFlg=           0 DoJE=T BraDBF=F KetDBF=T FulRan=T
         wScrn=  0.000000 ICntrl=     500 IOpCl=  0 I1Cent=   200000004 NGrid=           0
         NMat0=    1 NMatS0=      1 NMatT0=    0 NMatD0=    1 NMtDS0=    0 NMtDT0=    0
 Petite list used in FoFCou.
 Harris En= -7518.59626008329    
 JPrj=0 DoOrth=F DoCkMO=F.
 Leave Link  401 at Tue Mar  6 16:08:25 2018, MaxMem=   536870912 cpu:        12.0
 (Enter /share/apps//mg09/l502.exe)
 Closed shell SCF:
 Using DIIS extrapolation, IDIIS=  1040.
 Integral symmetry usage will be decided dynamically.
 IVT=     1410107 IEndB=     1410107 NGot=   536870912 MDV=   536322046
 LenX=   536322046 LenY=   536052166
 Requested convergence on RMS density matrix=1.00D-08 within 768 cycles.
 Requested convergence on MAX density matrix=1.00D-06.
 Requested convergence on             energy=1.00D-06.
 No special actions if energy rises.
 Fock matrices will be formed incrementally for  20 cycles.

 Cycle   1  Pass 1  IDiag  1:
 FoFJK:  IHMeth= 1 ICntrl=       0 DoSepK=F KAlg= 0 I1Cent=   0 FoldK=F
 IRaf= 880000000 NMat=   1 IRICut=       1 DoRegI=T DoRafI=F ISym2E= 0.
 FoFCou: FMM=F IPFlag=           0 FMFlag=      100000 FMFlg1=           0
         NFxFlg=           0 DoJE=F BraDBF=F KetDBF=F FulRan=T
         wScrn=  0.000000 ICntrl=       0 IOpCl=  0 I1Cent=           0 NGrid=           0
         NMat0=    1 NMatS0=      1 NMatT0=    0 NMatD0=    1 NMtDS0=    0 NMtDT0=    0
 Symmetry not used in FoFCou.
 Defaulting to unpruned grid for atomic number  83.
 Defaulting to unpruned grid for atomic number  83.
 Defaulting to unpruned grid for atomic number  83.
 Defaulting to unpruned grid for atomic number  83.
 E= -7517.25255661975    
 DIIS: error= 2.97D-02 at cycle   1 NSaved=   1.
 NSaved= 1 IEnMin= 1 EnMin= -7517.25255661975     IErMin= 1 ErrMin= 2.97D-02
 ErrMax= 2.97D-02  0.00D+00 EMaxC= 1.00D-01 BMatC= 1.44D+00 BMatP= 1.44D+00
 IDIUse=3 WtCom= 7.03D-01 WtEn= 2.97D-01
 Coeff-Com:  0.100D+01
 Coeff-En:   0.100D+01
 Coeff:      0.100D+01
 Gap=     0.112 Goal=   None    Shift=    0.000
 GapD=    0.112 DampG=1.000 DampE=0.500 DampFc=0.5000 IDamp=-1.
 Damping current iteration by 5.00D-01
 RMSDP=4.87D-03 MaxDP=1.90D-01              OVMax= 5.48D-01

 Cycle   2  Pass 1  IDiag  1:
 RMSU=  2.43D-03    CP:  1.00D+00
 E= -7517.31218234674     Delta-E=       -0.059625726994 Rises=F Damp=T
 DIIS: error= 9.47D-03 at cycle   2 NSaved=   2.
 NSaved= 2 IEnMin= 2 EnMin= -7517.31218234674     IErMin= 2 ErrMin= 9.47D-03
 ErrMax= 9.47D-03  0.00D+00 EMaxC= 1.00D-01 BMatC= 1.81D-01 BMatP= 1.44D+00
 IDIUse=3 WtCom= 9.05D-01 WtEn= 9.47D-02
 Coeff-Com:  0.671D-01 0.933D+00
 Coeff-En:   0.449D+00 0.551D+00
 Coeff:      0.103D+00 0.897D+00
 Gap=     0.129 Goal=   None    Shift=    0.000
 RMSDP=2.91D-03 MaxDP=1.84D-01 DE=-5.96D-02 OVMax= 5.01D-01

 Cycle   3  Pass 1  IDiag  1:
 RMSU=  2.42D-03    CP:  1.01D+00  3.41D-01
 E= -7516.72679183882     Delta-E=        0.585390507926 Rises=F Damp=F
 DIIS: error= 2.40D-02 at cycle   3 NSaved=   3.
 NSaved= 3 IEnMin= 2 EnMin= -7517.31218234674     IErMin= 2 ErrMin= 9.47D-03
 ErrMax= 2.40D-02  0.00D+00 EMaxC= 1.00D-01 BMatC= 8.45D-01 BMatP= 1.81D-01
 IDIUse=2 WtCom= 0.00D+00 WtEn= 1.00D+00
 EnCoef did     7 forward-backward iterations
 Coeff-En:   0.174D+00 0.601D+00 0.225D+00
 Coeff:      0.174D+00 0.601D+00 0.225D+00
 Gap=     0.187 Goal=   None    Shift=    0.000
 RMSDP=2.77D-03 MaxDP=1.39D-01 DE= 5.85D-01 OVMax= 3.26D-01

 Cycle   4  Pass 1  IDiag  1:
 RMSU=  9.49D-04    CP:  1.01D+00  9.26D-01  1.02D-01
 E= -7517.71486577346     Delta-E=       -0.988073934643 Rises=F Damp=F
 DIIS: error= 7.89D-03 at cycle   4 NSaved=   4.
 NSaved= 4 IEnMin= 4 EnMin= -7517.71486577346     IErMin= 4 ErrMin= 7.89D-03
 ErrMax= 7.89D-03  0.00D+00 EMaxC= 1.00D-01 BMatC= 8.33D-02 BMatP= 1.81D-01
 IDIUse=3 WtCom= 9.21D-01 WtEn= 7.89D-02
 Coeff-Com:  0.724D-01 0.136D+00 0.174D+00 0.618D+00
 Coeff-En:   0.000D+00 0.000D+00 0.127D+00 0.873D+00
 Coeff:      0.667D-01 0.125D+00 0.170D+00 0.638D+00
 Gap=     0.114 Goal=   None    Shift=    0.000
 RMSDP=1.03D-03 MaxDP=5.69D-02 DE=-9.88D-01 OVMax= 1.78D-01

 Cycle   5  Pass 1  IDiag  1:
 RMSU=  6.82D-04    CP:  1.00D+00  7.25D-01  2.86D-01  6.05D-01
 E= -7517.76386901831     Delta-E=       -0.049003244847 Rises=F Damp=F
 DIIS: error= 5.89D-03 at cycle   5 NSaved=   5.
 NSaved= 5 IEnMin= 5 EnMin= -7517.76386901831     IErMin= 5 ErrMin= 5.89D-03
 ErrMax= 5.89D-03  0.00D+00 EMaxC= 1.00D-01 BMatC= 3.59D-02 BMatP= 8.33D-02
 IDIUse=3 WtCom= 9.41D-01 WtEn= 5.89D-02
 Coeff-Com:  0.633D-01-0.102D+00 0.373D-01 0.524D+00 0.478D+00
 Coeff-En:   0.000D+00 0.000D+00 0.000D+00 0.346D+00 0.654D+00
 Coeff:      0.596D-01-0.958D-01 0.351D-01 0.513D+00 0.488D+00
 Gap=     0.114 Goal=   None    Shift=    0.000
 RMSDP=5.69D-04 MaxDP=3.03D-02 DE=-4.90D-02 OVMax= 8.87D-02

 Cycle   6  Pass 1  IDiag  1:
 RMSU=  3.21D-04    CP:  1.00D+00  7.15D-01  2.19D-01  8.10D-01  4.23D-01
 E= -7517.79146006150     Delta-E=       -0.027591043196 Rises=F Damp=F
 DIIS: error= 2.71D-03 at cycle   6 NSaved=   6.
 NSaved= 6 IEnMin= 6 EnMin= -7517.79146006150     IErMin= 6 ErrMin= 2.71D-03
 ErrMax= 2.71D-03  0.00D+00 EMaxC= 1.00D-01 BMatC= 7.72D-03 BMatP= 3.59D-02
 IDIUse=3 WtCom= 9.73D-01 WtEn= 2.71D-02
 Coeff-Com:  0.407D-01-0.836D-01 0.153D-01 0.346D+00 0.379D+00 0.303D+00
 Coeff-En:   0.000D+00 0.000D+00 0.000D+00 0.000D+00 0.242D+00 0.758D+00
 Coeff:      0.396D-01-0.813D-01 0.149D-01 0.336D+00 0.375D+00 0.316D+00
 Gap=     0.112 Goal=   None    Shift=    0.000
 RMSDP=2.93D-04 MaxDP=9.98D-03 DE=-2.76D-02 OVMax= 3.55D-02

 Cycle   7  Pass 1  IDiag  1:
 RMSU=  1.02D-04    CP:  1.00D+00  7.24D-01  2.05D-01  7.99D-01  5.66D-01
                    CP:  2.12D-01
 E= -7517.80069675554     Delta-E=       -0.009236694039 Rises=F Damp=F
 DIIS: error= 8.13D-04 at cycle   7 NSaved=   7.
 NSaved= 7 IEnMin= 7 EnMin= -7517.80069675554     IErMin= 7 ErrMin= 8.13D-04
 ErrMax= 8.13D-04  0.00D+00 EMaxC= 1.00D-01 BMatC= 9.65D-04 BMatP= 7.72D-03
 IDIUse=3 WtCom= 9.92D-01 WtEn= 8.13D-03
 Coeff-Com:  0.138D-01-0.327D-01 0.239D-02 0.106D+00 0.152D+00 0.254D+00
 Coeff-Com:  0.504D+00
 Coeff-En:   0.000D+00 0.000D+00 0.000D+00 0.000D+00 0.000D+00 0.164D+00
 Coeff-En:   0.836D+00
 Coeff:      0.137D-01-0.324D-01 0.237D-02 0.105D+00 0.151D+00 0.253D+00
 Coeff:      0.507D+00
 Gap=     0.112 Goal=   None    Shift=    0.000
 RMSDP=8.87D-05 MaxDP=4.87D-03 DE=-9.24D-03 OVMax= 1.09D-02

 Cycle   8  Pass 1  IDiag  1:
 RMSU=  3.96D-05    CP:  1.00D+00  7.23D-01  2.19D-01  8.06D-01  5.42D-01
                    CP:  3.89D-01  6.06D-01
 E= -7517.80183831293     Delta-E=       -0.001141557392 Rises=F Damp=F
 DIIS: error= 1.49D-04 at cycle   8 NSaved=   8.
 NSaved= 8 IEnMin= 8 EnMin= -7517.80183831293     IErMin= 8 ErrMin= 1.49D-04
 ErrMax= 1.49D-04  0.00D+00 EMaxC= 1.00D-01 BMatC= 3.12D-05 BMatP= 9.65D-04
 IDIUse=3 WtCom= 9.99D-01 WtEn= 1.49D-03
 Coeff-Com:  0.470D-02-0.115D-01 0.288D-05 0.315D-01 0.509D-01 0.986D-01
 Coeff-Com:  0.248D+00 0.577D+00
 Coeff-En:   0.000D+00 0.000D+00 0.000D+00 0.000D+00 0.000D+00 0.000D+00
 Coeff-En:   0.000D+00 0.100D+01
 Coeff:      0.469D-02-0.115D-01 0.288D-05 0.314D-01 0.509D-01 0.984D-01
 Coeff:      0.248D+00 0.578D+00
 Gap=     0.111 Goal=   None    Shift=    0.000
 RMSDP=2.42D-05 MaxDP=2.34D-03 DE=-1.14D-03 OVMax= 3.03D-03

 Cycle   9  Pass 1  IDiag  1:
 RMSU=  1.54D-05    CP:  1.00D+00  7.23D-01  2.18D-01  8.03D-01  5.48D-01
                    CP:  3.93D-01  6.84D-01  5.97D-01
 E= -7517.80186479605     Delta-E=       -0.000026483121 Rises=F Damp=F
 DIIS: error= 6.49D-05 at cycle   9 NSaved=   9.
 NSaved= 9 IEnMin= 9 EnMin= -7517.80186479605     IErMin= 9 ErrMin= 6.49D-05
 ErrMax= 6.49D-05  0.00D+00 EMaxC= 1.00D-01 BMatC= 9.74D-06 BMatP= 3.12D-05
 IDIUse=1 WtCom= 1.00D+00 WtEn= 0.00D+00
 Coeff-Com:  0.311D-03-0.729D-03-0.570D-03-0.105D-02 0.380D-02 0.180D-01
 Coeff-Com:  0.745D-01 0.377D+00 0.528D+00
 Coeff:      0.311D-03-0.729D-03-0.570D-03-0.105D-02 0.380D-02 0.180D-01
 Coeff:      0.745D-01 0.377D+00 0.528D+00
 Gap=     0.111 Goal=   None    Shift=    0.000
 RMSDP=1.12D-05 MaxDP=8.41D-04 DE=-2.65D-05 OVMax= 1.14D-03

 Cycle  10  Pass 1  IDiag  1:
 RMSU=  5.39D-06    CP:  1.00D+00  7.23D-01  2.18D-01  8.04D-01  5.49D-01
                    CP:  3.91D-01  6.83D-01  7.68D-01  5.80D-01
 E= -7517.80187359989     Delta-E=       -0.000008803832 Rises=F Damp=F
 DIIS: error= 3.74D-05 at cycle  10 NSaved=  10.
 NSaved=10 IEnMin=10 EnMin= -7517.80187359989     IErMin=10 ErrMin= 3.74D-05
 ErrMax= 3.74D-05  0.00D+00 EMaxC= 1.00D-01 BMatC= 1.54D-06 BMatP= 9.74D-06
 IDIUse=1 WtCom= 1.00D+00 WtEn= 0.00D+00
 Coeff-Com:  0.190D-04-0.555D-04-0.421D-03-0.204D-02 0.301D-03 0.819D-02
 Coeff-Com:  0.414D-01 0.237D+00 0.382D+00 0.334D+00
 Coeff:      0.190D-04-0.555D-04-0.421D-03-0.204D-02 0.301D-03 0.819D-02
 Coeff:      0.414D-01 0.237D+00 0.382D+00 0.334D+00
 Gap=     0.111 Goal=   None    Shift=    0.000
 RMSDP=4.36D-06 MaxDP=1.82D-04 DE=-8.80D-06 OVMax= 4.75D-04

 Cycle  11  Pass 1  IDiag  1:
 RMSU=  2.53D-06    CP:  1.00D+00  7.23D-01  2.17D-01  8.04D-01  5.49D-01
                    CP:  3.91D-01  6.83D-01  7.71D-01  6.47D-01  3.73D-01
 E= -7517.80187542777     Delta-E=       -0.000001827888 Rises=F Damp=F
 DIIS: error= 1.14D-05 at cycle  11 NSaved=  11.
 NSaved=11 IEnMin=11 EnMin= -7517.80187542777     IErMin=11 ErrMin= 1.14D-05
 ErrMax= 1.14D-05  0.00D+00 EMaxC= 1.00D-01 BMatC= 2.27D-07 BMatP= 1.54D-06
 IDIUse=1 WtCom= 1.00D+00 WtEn= 0.00D+00
 Coeff-Com: -0.779D-04 0.152D-03-0.150D-03-0.123D-02-0.125D-02 0.561D-03
 Coeff-Com:  0.878D-02 0.619D-01 0.143D+00 0.265D+00 0.523D+00
 Coeff:     -0.779D-04 0.152D-03-0.150D-03-0.123D-02-0.125D-02 0.561D-03
 Coeff:      0.878D-02 0.619D-01 0.143D+00 0.265D+00 0.523D+00
 Gap=     0.111 Goal=   None    Shift=    0.000
 RMSDP=1.61D-06 MaxDP=1.06D-04 DE=-1.83D-06 OVMax= 2.12D-04

 Cycle  12  Pass 1  IDiag  1:
 RMSU=  9.80D-07    CP:  1.00D+00  7.23D-01  2.17D-01  8.04D-01  5.50D-01
                    CP:  3.92D-01  6.85D-01  7.72D-01  6.60D-01  5.47D-01
                    CP:  7.30D-01
 E= -7517.80187570170     Delta-E=       -0.000000273925 Rises=F Damp=F
 DIIS: error= 4.53D-06 at cycle  12 NSaved=  12.
 NSaved=12 IEnMin=12 EnMin= -7517.80187570170     IErMin=12 ErrMin= 4.53D-06
 ErrMax= 4.53D-06  0.00D+00 EMaxC= 1.00D-01 BMatC= 2.47D-08 BMatP= 2.27D-07
 IDIUse=1 WtCom= 1.00D+00 WtEn= 0.00D+00
 Coeff-Com: -0.478D-04 0.102D-03-0.158D-04-0.504D-03-0.972D-03-0.549D-03
 Coeff-Com:  0.224D-03 0.294D-02 0.338D-01 0.110D+00 0.310D+00 0.545D+00
 Coeff:     -0.478D-04 0.102D-03-0.158D-04-0.504D-03-0.972D-03-0.549D-03
 Coeff:      0.224D-03 0.294D-02 0.338D-01 0.110D+00 0.310D+00 0.545D+00
 Gap=     0.111 Goal=   None    Shift=    0.000
 RMSDP=5.78D-07 MaxDP=3.50D-05 DE=-2.74D-07 OVMax= 6.38D-05

 Cycle  13  Pass 1  IDiag  1:
 RMSU=  3.09D-07    CP:  1.00D+00  7.23D-01  2.17D-01  8.05D-01  5.50D-01
                    CP:  3.92D-01  6.87D-01  7.73D-01  6.70D-01  5.60D-01
                    CP:  8.11D-01  7.16D-01
 E= -7517.80187573300     Delta-E=       -0.000000031298 Rises=F Damp=F
 DIIS: error= 1.43D-06 at cycle  13 NSaved=  13.
 NSaved=13 IEnMin=13 EnMin= -7517.80187573300     IErMin=13 ErrMin= 1.43D-06
 ErrMax= 1.43D-06  0.00D+00 EMaxC= 1.00D-01 BMatC= 3.27D-09 BMatP= 2.47D-08
 IDIUse=1 WtCom= 1.00D+00 WtEn= 0.00D+00
 Coeff-Com: -0.124D-04 0.237D-04 0.183D-04-0.777D-04-0.452D-03-0.521D-03
 Coeff-Com: -0.207D-02-0.116D-01-0.773D-02 0.168D-01 0.883D-01 0.298D+00
 Coeff-Com:  0.619D+00
 Coeff:     -0.124D-04 0.237D-04 0.183D-04-0.777D-04-0.452D-03-0.521D-03
 Coeff:     -0.207D-02-0.116D-01-0.773D-02 0.168D-01 0.883D-01 0.298D+00
 Coeff:      0.619D+00
 Gap=     0.111 Goal=   None    Shift=    0.000
 RMSDP=2.17D-07 MaxDP=6.70D-06 DE=-3.13D-08 OVMax= 4.50D-05

 Cycle  14  Pass 1  IDiag  1:
 RMSU=  1.00D-07    CP:  1.00D+00  7.23D-01  2.17D-01  8.05D-01  5.50D-01
                    CP:  3.92D-01  6.88D-01  7.74D-01  6.75D-01  5.66D-01
                    CP:  8.30D-01  8.45D-01  8.76D-01
 E= -7517.80187573714     Delta-E=       -0.000000004140 Rises=F Damp=F
 DIIS: error= 2.45D-07 at cycle  14 NSaved=  14.
 NSaved=14 IEnMin=14 EnMin= -7517.80187573714     IErMin=14 ErrMin= 2.45D-07
 ErrMax= 2.45D-07  0.00D+00 EMaxC= 1.00D-01 BMatC= 1.69D-10 BMatP= 3.27D-09
 IDIUse=1 WtCom= 1.00D+00 WtEn= 0.00D+00
 Coeff-Com:  0.807D-06-0.116D-05 0.602D-05 0.960D-05-0.802D-04-0.115D-03
 Coeff-Com: -0.785D-03-0.419D-02-0.618D-02-0.483D-02 0.142D-03 0.496D-01
 Coeff-Com:  0.247D+00 0.720D+00
 Coeff:      0.807D-06-0.116D-05 0.602D-05 0.960D-05-0.802D-04-0.115D-03
 Coeff:     -0.785D-03-0.419D-02-0.618D-02-0.483D-02 0.142D-03 0.496D-01
 Coeff:      0.247D+00 0.720D+00
 Gap=     0.111 Goal=   None    Shift=    0.000
 RMSDP=7.13D-08 MaxDP=3.17D-06 DE=-4.14D-09 OVMax= 1.62D-05

 Cycle  15  Pass 1  IDiag  1:
 RMSU=  3.57D-08    CP:  1.00D+00  7.23D-01  2.17D-01  8.05D-01  5.50D-01
                    CP:  3.92D-01  6.88D-01  7.75D-01  6.75D-01  5.70D-01
                    CP:  8.40D-01  8.54D-01  9.56D-01  1.01D+00
 E= -7517.80187573733     Delta-E=       -0.000000000193 Rises=F Damp=F
 DIIS: error= 1.11D-07 at cycle  15 NSaved=  15.
 NSaved=15 IEnMin=15 EnMin= -7517.80187573733     IErMin=15 ErrMin= 1.11D-07
 ErrMax= 1.11D-07  0.00D+00 EMaxC= 1.00D-01 BMatC= 2.52D-11 BMatP= 1.69D-10
 IDIUse=1 WtCom= 1.00D+00 WtEn= 0.00D+00
 Coeff-Com:  0.312D-05-0.587D-05-0.403D-06 0.240D-04 0.195D-04 0.555D-06
 Coeff-Com: -0.137D-03-0.758D-03-0.190D-02-0.350D-02-0.812D-02-0.106D-01
 Coeff-Com:  0.449D-01 0.306D+00 0.674D+00
 Coeff:      0.312D-05-0.587D-05-0.403D-06 0.240D-04 0.195D-04 0.555D-06
 Coeff:     -0.137D-03-0.758D-03-0.190D-02-0.350D-02-0.812D-02-0.106D-01
 Coeff:      0.449D-01 0.306D+00 0.674D+00
 Gap=     0.111 Goal=   None    Shift=    0.000
 RMSDP=2.35D-08 MaxDP=9.66D-07 DE=-1.93D-10 OVMax= 5.78D-06

 Cycle  16  Pass 1  IDiag  1:
 RMSU=  1.42D-08    CP:  1.00D+00  7.23D-01  2.17D-01  8.05D-01  5.50D-01
                    CP:  3.92D-01  6.88D-01  7.75D-01  6.75D-01  5.71D-01
                    CP:  8.43D-01  8.63D-01  9.73D-01  1.10D+00  9.33D-01
 E= -7517.80187573743     Delta-E=       -0.000000000102 Rises=F Damp=F
 DIIS: error= 4.95D-08 at cycle  16 NSaved=  16.
 NSaved=16 IEnMin=16 EnMin= -7517.80187573743     IErMin=16 ErrMin= 4.95D-08
 ErrMax= 4.95D-08  0.00D+00 EMaxC= 1.00D-01 BMatC= 4.78D-12 BMatP= 2.52D-11
 IDIUse=1 WtCom= 1.00D+00 WtEn= 0.00D+00
 Coeff-Com:  0.185D-05-0.359D-05-0.768D-06 0.149D-04 0.198D-04 0.951D-05
 Coeff-Com: -0.909D-05-0.556D-04-0.545D-03-0.152D-02-0.473D-02-0.121D-01
 Coeff-Com:  0.699D-03 0.981D-01 0.395D+00 0.526D+00
 Coeff:      0.185D-05-0.359D-05-0.768D-06 0.149D-04 0.198D-04 0.951D-05
 Coeff:     -0.909D-05-0.556D-04-0.545D-03-0.152D-02-0.473D-02-0.121D-01
 Coeff:      0.699D-03 0.981D-01 0.395D+00 0.526D+00
 Gap=     0.111 Goal=   None    Shift=    0.000
 RMSDP=9.22D-09 MaxDP=6.40D-07 DE=-1.02D-10 OVMax= 1.41D-06

 SCF Done:  E(RPBE1PBE) =  -7517.80187574     A.U. after   16 cycles
            NFock= 16  Conv=0.92D-08     -V/T= 2.1285
 KE= 6.661937779755D+03 PE=-2.464452309117D+04 EE= 6.938204260495D+03
 Leave Link  502 at Tue Mar  6 16:23:28 2018, MaxMem=   536870912 cpu:      3346.4
 (Enter /share/apps//mg09/l601.exe)
 Copying SCF densities to generalized density rwf, IOpCl= 0 IROHF=0.

 **********************************************************************

            Population analysis using the SCF density.

 **********************************************************************

 Orbital symmetries:
       Occupied  (A) (A) (A) (A) (A) (A) (A) (A) (A) (A) (A) (A)
                 (A) (A) (A) (A) (A) (A) (A) (A) (A) (A) (A) (A)
                 (A) (A) (A) (A) (A) (A) (A) (A) (A) (A) (A) (A)
                 (A) (A) (A) (A) (A) (A) (A) (A) (A) (A) (A) (A)
                 (A) (A) (A) (A) (A) (A) (A) (A) (A) (A) (A) (A)
                 (A) (A) (A) (A) (A) (A) (A) (A) (A) (A) (A) (A)
                 (A) (A) (A) (A) (A) (A) (A) (A) (A) (A) (A) (A)
                 (A) (A) (A) (A) (A) (A) (A) (A) (A) (A) (A) (A)
                 (A) (A) (A) (A) (A) (A) (A) (A) (A) (A) (A) (A)
                 (A) (A) (A) (A) (A) (A) (A) (A)
       Virtual   (A) (A) (A) (A) (A) (A) (A) (A) (A) (A) (A) (A)
                 (A) (A) (A) (A) (A) (A) (A) (A) (A) (A) (A) (A)
                 (A) (A) (A) (A) (A) (A) (A) (A) (A) (A) (A) (A)
                 (A) (A) (A) (A) (A) (A) (A) (A) (A) (A) (A) (A)
                 (A) (A) (A) (A) (A) (A) (A) (A) (A) (A) (A) (A)
                 (A) (A) (A) (A) (A) (A) (A) (A) (A) (A) (A) (A)
                 (A) (A) (A) (A) (A) (A) (A) (A) (A) (A) (A) (A)
                 (A) (A) (A) (A) (A) (A) (A) (A) (A) (A) (A) (A)
                 (A) (A) (A) (A) (A) (A) (A) (A) (A) (A) (A) (A)
                 (A) (A) (A) (A) (A) (A) (A) (A) (A) (A) (A) (A)
                 (A) (A) (A) (A) (A) (A) (A) (A) (A) (A) (A) (A)
                 (A) (A) (A) (A) (A) (A) (A) (A) (A) (A) (A) (A)
                 (A) (A) (A) (A) (A) (A) (A) (A) (A) (A) (A) (A)
                 (A) (A) (A) (A) (A) (A) (A) (A) (A) (A) (A) (A)
                 (A) (A) (A) (A) (A) (A) (A) (A) (A) (A) (A) (A)
                 (A) (A) (A) (A) (A) (A) (A) (A) (A) (A) (A) (A)
                 (A) (A) (A) (A) (A) (A) (A) (A) (A) (A) (A) (A)
                 (A) (A) (A) (A) (A) (A) (A) (A) (A) (A) (A) (A)
                 (A) (A) (A) (A) (A) (A) (A) (A) (A) (A) (A) (A)
                 (A) (A) (A) (A) (A) (A) (A) (A) (A) (A) (A) (A)
                 (A) (A) (A) (A) (A) (A) (A) (A) (A) (A) (A) (A)
                 (A) (A) (A) (A) (A) (A) (A) (A) (A) (A) (A) (A)
                 (A) (A) (A) (A) (A) (A) (A) (A) (A) (A) (A) (A)
                 (A) (A) (A) (A) (A) (A) (A) (A) (A) (A) (A) (A)
                 (A) (A) (A) (A) (A) (A) (A) (A) (A) (A) (A) (A)
                 (A) (A) (A) (A) (A) (A) (A) (A) (A) (A) (A) (A)
                 (A) (A) (A) (A) (A) (A) (A) (A) (A) (A) (A) (A)
                 (A) (A) (A) (A)
 The electronic state is 1-A.
 Alpha  occ. eigenvalues -- -399.10668-399.08869-399.08691 -49.92200 -49.90446
 Alpha  occ. eigenvalues --  -49.90281 -44.40295 -44.40266 -44.40215 -44.38533
 Alpha  occ. eigenvalues --  -44.38518 -44.38452 -44.38374 -44.38348 -44.38282
 Alpha  occ. eigenvalues --   -6.28686  -6.26945  -6.26782  -6.02096  -6.02020
 Alpha  occ. eigenvalues --   -6.02003  -6.01762  -5.13438  -5.13337  -4.44147
 Alpha  occ. eigenvalues --   -4.44058  -4.43896  -4.42413  -4.42356  -4.42273
 Alpha  occ. eigenvalues --   -4.42183  -4.42128  -4.41953  -3.74432  -3.74349
 Alpha  occ. eigenvalues --   -3.74306  -3.74208  -3.74204  -3.74096  -3.74067
 Alpha  occ. eigenvalues --   -3.74051  -3.73980  -3.73965  -3.73938  -3.73709
 Alpha  occ. eigenvalues --   -3.46672  -3.46563  -3.46557  -3.46486  -3.46435
 Alpha  occ. eigenvalues --   -3.46305  -1.23595  -1.23581  -1.23439  -1.23377
 Alpha  occ. eigenvalues --   -1.23353  -1.21902  -1.21896  -1.21758  -1.21755
 Alpha  occ. eigenvalues --   -1.21740  -1.21645  -1.21634  -1.21496  -1.21442
 Alpha  occ. eigenvalues --   -1.21359  -1.08702  -1.08442  -1.08326  -1.08127
 Alpha  occ. eigenvalues --   -1.08007  -1.07969  -1.07885  -1.07807  -1.07778
 Alpha  occ. eigenvalues --   -1.07752  -1.07647  -1.07636  -1.07588  -1.07548
 Alpha  occ. eigenvalues --   -1.07448  -1.07409  -1.07339  -1.07294  -1.07153
 Alpha  occ. eigenvalues --   -1.07104  -1.02944  -1.02881  -1.02765  -1.02734
 Alpha  occ. eigenvalues --   -1.02715  -1.02688  -1.02618  -1.02608  -1.02479
 Alpha  occ. eigenvalues --   -1.02448  -0.66972  -0.62469  -0.59937  -0.54459
 Alpha  occ. eigenvalues --   -0.52268  -0.47629  -0.43261  -0.42197  -0.40268
 Alpha  occ. eigenvalues --   -0.28960  -0.28293  -0.26743  -0.25441  -0.24908
 Alpha  occ. eigenvalues --   -0.24131  -0.23395  -0.22603  -0.21979  -0.20975
 Alpha  occ. eigenvalues --   -0.19228
 Alpha virt. eigenvalues --   -0.08099  -0.07488  -0.07329  -0.06995  -0.05608
 Alpha virt. eigenvalues --   -0.05516  -0.05073  -0.04715  -0.04643  -0.04129
 Alpha virt. eigenvalues --   -0.03402  -0.02064  -0.00632   0.03576   0.04602
 Alpha virt. eigenvalues --    0.05234   0.06372   0.07920   0.08814   0.08836
 Alpha virt. eigenvalues --    0.09575   0.09630   0.09905   0.10069   0.10538
 Alpha virt. eigenvalues --    0.10908   0.11648   0.12046   0.12405   0.12997
 Alpha virt. eigenvalues --    0.14104   0.14930   0.15776   0.16210   0.16844
 Alpha virt. eigenvalues --    0.17189   0.19927   0.20200   0.20516   0.20698
 Alpha virt. eigenvalues --    0.21037   0.21452   0.21939   0.23734   0.24064
 Alpha virt. eigenvalues --    0.24682   0.25430   0.26155   0.26874   0.28228
 Alpha virt. eigenvalues --    0.29415   0.29944   0.30386   0.30829   0.31411
 Alpha virt. eigenvalues --    0.32002   0.32419   0.32825   0.33203   0.34169
 Alpha virt. eigenvalues --    0.34576   0.35334   0.35582   0.36333   0.38033
 Alpha virt. eigenvalues --    0.39043   0.40105   0.40312   0.41206   0.41633
 Alpha virt. eigenvalues --    0.42017   0.42603   0.43061   0.43449   0.44301
 Alpha virt. eigenvalues --    0.45958   0.46202   0.46880   0.47318   0.48107
 Alpha virt. eigenvalues --    0.48560   0.49346   0.49856   0.50002   0.51437
 Alpha virt. eigenvalues --    0.52625   0.53771   0.55017   0.55556   0.55914
 Alpha virt. eigenvalues --    0.56620   0.57241   0.57864   0.58381   0.58979
 Alpha virt. eigenvalues --    0.59394   0.60377   0.60810   0.61199   0.62096
 Alpha virt. eigenvalues --    0.62915   0.63394   0.63921   0.65340   0.66064
 Alpha virt. eigenvalues --    0.66681   0.67842   0.68605   0.68678   0.70623
 Alpha virt. eigenvalues --    0.71252   0.71603   0.71790   0.72940   0.73830
 Alpha virt. eigenvalues --    0.74257   0.76009   0.77060   0.77485   0.78191
 Alpha virt. eigenvalues --    0.79246   0.80856   0.81182   0.82309   0.83000
 Alpha virt. eigenvalues --    0.83860   0.84367   0.85315   0.85510   0.86186
 Alpha virt. eigenvalues --    0.87576   0.87931   0.88584   0.89434   0.89690
 Alpha virt. eigenvalues --    0.90021   0.91127   0.91367   0.91701   0.92764
 Alpha virt. eigenvalues --    0.93878   0.94484   0.95049   0.96068   0.97139
 Alpha virt. eigenvalues --    0.97659   0.98749   0.99299   0.99856   1.01381
 Alpha virt. eigenvalues --    1.01639   1.03851   1.04965   1.05719   1.07831
 Alpha virt. eigenvalues --    1.09305   1.10613   1.10847   1.12399   1.13210
 Alpha virt. eigenvalues --    1.13344   1.14801   1.15068   1.16584   1.17188
 Alpha virt. eigenvalues --    1.17606   1.18182   1.18397   1.18549   1.19886
 Alpha virt. eigenvalues --    1.20620   1.21283   1.21503   1.21602   1.21945
 Alpha virt. eigenvalues --    1.22169   1.22876   1.23076   1.23149   1.23971
 Alpha virt. eigenvalues --    1.24642   1.25138   1.25547   1.25878   1.26374
 Alpha virt. eigenvalues --    1.27085   1.27579   1.28138   1.29309   1.29561
 Alpha virt. eigenvalues --    1.30928   1.32011   1.32733   1.33243   1.34512
 Alpha virt. eigenvalues --    1.34819   1.35784   1.37131   1.37271   1.38083
 Alpha virt. eigenvalues --    1.38550   1.40807   1.41484   1.43246   1.43472
 Alpha virt. eigenvalues --    1.44349   1.46952   1.47069   1.47718   1.49123
 Alpha virt. eigenvalues --    1.50369   1.50656   1.51054   1.52090   1.53716
 Alpha virt. eigenvalues --    1.54103   1.56343   1.56701   1.57965   1.59798
 Alpha virt. eigenvalues --    1.62525   1.67761   1.70663   2.08455   2.08983
 Alpha virt. eigenvalues --    2.09792   2.10380   2.12125   2.12533   2.14211
 Alpha virt. eigenvalues --    2.15846   2.18653   2.19509   2.20175   2.21295
 Alpha virt. eigenvalues --    2.22519   2.22941   2.23898   2.24920   2.25272
 Alpha virt. eigenvalues --    2.27064   2.29573   2.30801   2.31164   2.31864
 Alpha virt. eigenvalues --    2.33689   2.35488   2.36538   2.37665   2.38336
 Alpha virt. eigenvalues --    2.39455   2.40880   2.42238   2.44167   2.46251
 Alpha virt. eigenvalues --    2.48662   2.51044   2.51382   2.54248   2.56354
 Alpha virt. eigenvalues --    2.59349   2.59694   2.61812   2.65212   2.66263
 Alpha virt. eigenvalues --    2.67732   2.69692   2.72618   2.74355   2.75268
 Alpha virt. eigenvalues --    2.76313   2.77875   2.79752   2.80845   2.81761
 Alpha virt. eigenvalues --    2.82798   2.83039   2.85080   2.88235   2.96548
 Alpha virt. eigenvalues --    3.21620   3.24008   3.30313   3.34464   3.39208
 Alpha virt. eigenvalues --    3.42046   3.92406   3.96037   3.96992   4.00809
 Alpha virt. eigenvalues --    4.02273   4.03329   4.04268   4.05363   4.12803
 Alpha virt. eigenvalues --    5.24485   5.31658   5.39035  35.38466  35.39555
 Alpha virt. eigenvalues --   35.41817  35.43983  35.46596  35.47796  35.48808
 Alpha virt. eigenvalues --   35.51775  35.52997  35.57608  35.61359  35.62125
 Alpha virt. eigenvalues --   35.89421  35.92929  35.98298  36.08658  36.19602
 Alpha virt. eigenvalues --   36.21658  36.93961  36.95645  37.01765  37.04874
 Alpha virt. eigenvalues --   37.08612  37.16811 113.57693 113.58951 120.21912
 Alpha virt. eigenvalues --  120.23389 120.24481 120.25631
          Condensed to atoms (all electrons):
               1          2          3          4          5          6
     1  Ge  31.584485  -0.021915   0.140430  -0.012576   0.163543  -0.018989
     2  Bi  -0.021915  22.290589   0.124136   0.175505  -0.024634   0.174678
     3  Sn   0.140430   0.124136  21.368153   0.097137  -0.019181  -0.016957
     4  Sn  -0.012576   0.175505   0.097137  21.462066  -0.018233  -0.017593
     5  Bi   0.163543  -0.024634  -0.019181  -0.018233  22.339566   0.191819
     6  Bi  -0.018989   0.174678  -0.016957  -0.017593   0.191819  22.387993
     7  Ge  -0.016542   0.047349  -0.020500   0.191224   0.140931   0.140806
     8  Bi   0.138762  -0.030475   0.116711   0.172037   0.165874  -0.022620
     9  Ge   0.204270   0.152195   0.127658  -0.012598  -0.015844   0.151651
               7          8          9
     1  Ge  -0.016542   0.138762   0.204270
     2  Bi   0.047349  -0.030475   0.152195
     3  Sn  -0.020500   0.116711   0.127658
     4  Sn   0.191224   0.172037  -0.012598
     5  Bi   0.140931   0.165874  -0.015844
     6  Bi   0.140806  -0.022620   0.151651
     7  Ge  31.557638   0.078087  -0.018679
     8  Bi   0.078087  22.286911  -0.023873
     9  Ge  -0.018679  -0.023873  31.555410
 Mulliken charges:
               1
     1  Ge  -0.161468
     2  Bi   0.112573
     3  Sn   0.082414
     4  Sn  -0.036968
     5  Bi   0.076159
     6  Bi   0.029212
     7  Ge  -0.100315
     8  Bi   0.118586
     9  Ge  -0.120191
 Sum of Mulliken charges =   0.00000
 Mulliken charges with hydrogens summed into heavy atoms:
               1
     1  Ge  -0.161468
     2  Bi   0.112573
     3  Sn   0.082414
     4  Sn  -0.036968
     5  Bi   0.076159
     6  Bi   0.029212
     7  Ge  -0.100315
     8  Bi   0.118586
     9  Ge  -0.120191
 Electronic spatial extent (au):  <R**2>=           5960.5584
 Charge=              0.0000 electrons
 Dipole moment (field-independent basis, Debye):
    X=             -0.2345    Y=              0.0660    Z=             -1.2526  Tot=              1.2760
 Quadrupole moment (field-independent basis, Debye-Ang):
   XX=           -212.5370   YY=           -215.3057   ZZ=           -225.9840
   XY=             -0.2379   XZ=             -0.1162   YZ=             -0.1206
 Traceless Quadrupole moment (field-independent basis, Debye-Ang):
   XX=              5.4052   YY=              2.6365   ZZ=             -8.0418
   XY=             -0.2379   XZ=             -0.1162   YZ=             -0.1206
 Octapole moment (field-independent basis, Debye-Ang**2):
  XXX=            -87.1108  YYY=             12.4619  ZZZ=            -49.7990  XYY=            -20.6732
  XXY=              7.7890  XXZ=            -12.2085  XZZ=            -18.7891  YZZ=              4.7309
  YYZ=            -24.9899  XYZ=             -0.8563
 Hexadecapole moment (field-independent basis, Debye-Ang**3):
 XXXX=          -3558.9484 YYYY=          -3273.6347 ZZZZ=          -2820.4367 XXXY=             34.4530
 XXXZ=             24.8544 YYYX=              6.3255 YYYZ=              3.1055 ZZZX=             13.6711
 ZZZY=              1.5780 XXYY=          -1114.7550 XXZZ=          -1075.1795 YYZZ=          -1054.2751
 XXYZ=             -4.7108 YYXZ=              4.8863 ZZXY=              2.0510
 N-N= 3.526579175181D+03 E-N=-2.464452311653D+04  KE= 6.661937779755D+03
 No NMR shielding tensors so no spin-rotation constants.
 Leave Link  601 at Tue Mar  6 16:23:29 2018, MaxMem=   536870912 cpu:         2.2
 (Enter /share/apps//mg09/l701.exe)
 Compute integral first derivatives.
 ... and contract with generalized density number  0.
   1 Symmetry operations used in ECPInt.
 ECPInt:  NShTT=   10440 NPrTT=   41973 LenC2=    9648 LenP2D=   27446.
 LDataN:  DoStor=T MaxTD1= 9 Len=  602
 Leave Link  701 at Tue Mar  6 16:23:48 2018, MaxMem=   536870912 cpu:        78.4
 (Enter /share/apps//mg09/l702.exe)
 L702 exits ... SP integral derivatives will be done elsewhere.
 Leave Link  702 at Tue Mar  6 16:23:48 2018, MaxMem=   536870912 cpu:         0.0
 (Enter /share/apps//mg09/l703.exe)
 Compute integral first derivatives, UseDBF=F ICtDFT=           0.
 Integral derivatives from FoFJK, PRISM(SPDF).
 Calling FoFJK, ICntrl=      2127 FMM=F ISym2X=0 I1Cent= 0 IOpClX= 0 NMat=1 NMatS=1 NMatT=0.
 FoFJK:  IHMeth= 1 ICntrl=    2127 DoSepK=F KAlg= 0 I1Cent=   0 FoldK=F
 IRaf=         0 NMat=   1 IRICut=       1 DoRegI=T DoRafI=F ISym2E= 0.
 FoFCou: FMM=F IPFlag=           0 FMFlag=      100000 FMFlg1=         800
         NFxFlg=           0 DoJE=F BraDBF=F KetDBF=F FulRan=T
         wScrn=  0.000000 ICntrl=    2127 IOpCl=  0 I1Cent=           0 NGrid=           0
         NMat0=    1 NMatS0=      1 NMatT0=    0 NMatD0=    1 NMtDS0=    0 NMtDT0=    0
 Symmetry not used in FoFCou.
 Defaulting to unpruned grid for atomic number  83.
 Defaulting to unpruned grid for atomic number  83.
 Defaulting to unpruned grid for atomic number  83.
 Defaulting to unpruned grid for atomic number  83.
 Leave Link  703 at Tue Mar  6 16:27:12 2018, MaxMem=   536870912 cpu:       797.4
 (Enter /share/apps//mg09/l716.exe)
 Dipole        =-9.22609027D-02 2.59507602D-02-4.92797525D-01
 ***** Axes restored to original set *****
 -------------------------------------------------------------------
 Center     Atomic                   Forces (Hartrees/Bohr)
 Number     Number              X              Y              Z
 -------------------------------------------------------------------
      1       32           0.005685996    0.009317891   -0.009976881
      2       83          -0.003777756   -0.008571611    0.002682416
      3       50          -0.012963527    0.001747355   -0.005862590
      4       50          -0.010187415    0.000978180    0.007049741
      5       83           0.008164188    0.003559251    0.001172957
      6       83           0.006449424   -0.005796494    0.001487306
      7       32           0.003626010   -0.000588745    0.010775248
      8       83          -0.001020769    0.009390912    0.002508010
      9       32           0.004023848   -0.010036738   -0.009836205
 -------------------------------------------------------------------
 Cartesian Forces:  Max     0.012963527 RMS     0.006859574
 Force constants in Cartesian coordinates: 
                1             2             3             4             5 
      1  0.127818D+00
      2  0.147391D-01  0.132712D+00
      3 -0.136023D-01 -0.168529D-01  0.180181D+00
      4  0.380317D-02 -0.569409D-02  0.417066D-02  0.166154D+00
      5 -0.352920D-02 -0.888630D-03  0.885566D-02  0.267345D-01  0.201876D+00
      6 -0.130933D-02  0.110199D-02  0.196235D-02 -0.241647D-01 -0.119289D-01
      7 -0.540472D-01 -0.156063D-02 -0.148047D-01 -0.298291D-01 -0.126049D-01
      8 -0.219823D-01 -0.206264D-01  0.113654D-02  0.184871D-01 -0.432668D-01
      9  0.196090D-01  0.994671D-02 -0.313839D-01 -0.170518D-01  0.554243D-02
     10  0.133143D-02 -0.165026D-02  0.774471D-02 -0.293395D-01 -0.867761D-02
     11  0.249069D-02  0.578667D-02  0.158955D-02  0.238976D-01 -0.530640D-01
     12  0.310116D-02  0.530643D-02 -0.178915D-03  0.154708D-01 -0.759063D-03
     13 -0.387547D-01 -0.900935D-02 -0.263211D-02 -0.807701D-03 -0.904362D-02
     14  0.109019D-02 -0.223753D-01  0.119742D-01 -0.259545D-02 -0.106096D-03
     15 -0.380384D-01  0.152098D-02 -0.540246D-01 -0.258307D-02 -0.211856D-02
     16  0.168825D-02  0.428547D-02  0.917224D-03 -0.628080D-01  0.141999D-01
     17  0.442490D-02 -0.918070D-03  0.724421D-02 -0.243505D-01 -0.308322D-01
     18  0.104351D-02  0.665581D-02  0.425414D-03  0.367470D-02  0.741999D-03
     19  0.650946D-02 -0.141147D-03 -0.143011D-02 -0.170662D-01 -0.737678D-02
     20 -0.100252D-02  0.354143D-02 -0.167701D-02 -0.142381D-01 -0.260084D-01
     21  0.191555D-02  0.710453D-02 -0.560737D-02  0.691702D-03  0.102514D-01
     22 -0.272733D-01  0.128104D-01  0.186147D-01  0.466475D-02  0.882316D-03
     23 -0.236830D-02 -0.387280D-01  0.502739D-02 -0.512452D-02 -0.104510D-01
     24  0.225523D-01 -0.318130D-01 -0.578399D-01  0.464910D-03 -0.270152D-02
     25 -0.210748D-01 -0.137795D-01  0.102186D-02 -0.347718D-01 -0.584629D-03
     26  0.613743D-02 -0.585036D-01 -0.172977D-01 -0.171166D-01 -0.372588D-01
     27  0.472862D-02  0.170294D-01 -0.335340D-01  0.193268D-01 -0.788346D-02
                6             7             8             9            10 
      6  0.147916D+00
      7 -0.119630D-02  0.190721D+00
      8  0.242316D-01 -0.857740D-02  0.125108D+00
      9 -0.288608D-01  0.352563D-01 -0.723471D-02  0.158253D+00
     10  0.715744D-02 -0.258245D-01  0.201222D-02 -0.211458D-01  0.151058D+00
     11 -0.260144D-01  0.120718D-02 -0.111121D-01  0.362207D-02 -0.256423D-02
     12 -0.300282D-01  0.185009D-01 -0.158328D-02 -0.429030D-01 -0.355059D-01
     13  0.287759D-02 -0.405644D-02  0.239428D-02 -0.578926D-02 -0.375379D-02
     14  0.312039D-02 -0.581367D-02  0.409636D-02 -0.243268D-02 -0.476843D-02
     15  0.433395D-02 -0.288118D-02  0.152319D-02  0.478071D-02  0.168355D-02
     16 -0.400971D-02 -0.193321D-02 -0.119858D-03 -0.529890D-02 -0.172567D-02
     17 -0.177851D-02  0.764993D-02  0.254594D-02  0.401020D-02  0.656006D-02
     18 -0.166835D-01 -0.315843D-02 -0.924153D-03  0.450216D-02  0.288377D-02
     19 -0.137542D-01  0.860703D-04  0.117468D-02 -0.322600D-02 -0.581191D-01
     20 -0.160574D-01  0.112187D-02  0.747473D-02  0.447997D-03  0.382214D-02
     21 -0.293745D-01 -0.106384D-01  0.143585D-02 -0.490738D-02  0.155067D-01
     22  0.128253D-02 -0.312447D-01 -0.200693D-01 -0.184964D-01 -0.347598D-01
     23  0.185177D-02  0.970992D-02 -0.384173D-01 -0.745886D-03  0.224074D-02
     24  0.708809D-02 -0.701660D-02 -0.224351D-01 -0.291242D-01  0.143734D-01
     25  0.331167D-01 -0.438722D-01  0.266806D-01  0.161429D-01  0.113329D-02
     26  0.254735D-01  0.886773D-02 -0.258022D-01 -0.131561D-01  0.302537D-02
     27 -0.563537D-01 -0.140616D-01  0.385009D-02 -0.303564D-01  0.730211D-02
               11            12            13            14            15 
     11  0.111729D+00
     12  0.505622D-02  0.129497D+00
     13 -0.119176D-02  0.618224D-02  0.176164D+00
     14  0.616281D-02 -0.120825D-02  0.227952D-01  0.131201D+00
     15 -0.319464D-02  0.538355D-02  0.719209D-02 -0.149048D-01  0.125115D+00
     16  0.413366D-02  0.567042D-02 -0.279731D-01 -0.237032D-01 -0.349843D-02
     17  0.406372D-02  0.185157D-03  0.128527D-01 -0.605441D-01  0.108286D-02
     18  0.235482D-02  0.540661D-02 -0.430989D-02  0.448402D-02 -0.156856D-01
     19  0.391587D-02 -0.288388D-01 -0.439552D-01 -0.138368D-01  0.328748D-01
     20 -0.207624D-01  0.251246D-02 -0.917839D-02 -0.236308D-01  0.240605D-01
     21 -0.178252D-02 -0.376842D-01 -0.262176D-02  0.591525D-02 -0.537695D-01
     22 -0.307094D-01  0.140957D-01 -0.557053D-01  0.318017D-01  0.692423D-02
     23 -0.488203D-01 -0.401778D-02 -0.563813D-02 -0.356139D-01 -0.127690D-02
     24  0.215235D-01 -0.289345D-01  0.127985D-03  0.901031D-04 -0.158651D-01
     25 -0.117955D-02  0.132356D-02 -0.115796D-02 -0.496952D-02 -0.167359D-02
     26  0.601657D-02 -0.549190D-02 -0.398092D-02  0.809769D-03 -0.669260D-02
     27 -0.315457D-02 -0.558006D-03 -0.102689D-02 -0.703821D-02 -0.268177D-03
               16            17            18            19            20 
     16  0.155239D+00
     17 -0.318205D-01  0.150788D+00
     18  0.136936D-01  0.598870D-02  0.121712D+00
     19 -0.348245D-01  0.184268D-01  0.223897D-01  0.158830D+00
     20  0.124863D-01 -0.355551D-01 -0.336513D-01 -0.599123D-02  0.129022D+00
     21 -0.518043D-02 -0.442966D-02 -0.499765D-01  0.285019D-02 -0.165078D-02
     22  0.249394D-02  0.160588D-02 -0.218693D-02 -0.171133D-01  0.131383D-01
     23  0.840668D-02 -0.340910D-02  0.248391D-02  0.462200D-02 -0.377131D-01
     24  0.129946D-02 -0.362092D-02  0.488416D-02 -0.106369D-01  0.238105D-01
     25 -0.301568D-01  0.465077D-02 -0.340300D-01  0.565324D-02 -0.158423D-03
     26  0.121315D-01 -0.261388D-01  0.118662D-01 -0.793407D-03  0.363161D-02
     27 -0.359328D-02 -0.868203D-02 -0.545853D-01 -0.228629D-03  0.220500D-02
               21            22            23            24            25 
     21  0.222592D+00
     22 -0.277811D-02  0.153881D+00
     23 -0.921632D-02 -0.132326D-01  0.215814D+00
     24 -0.355605D-01 -0.197407D-01  0.159236D-01  0.153639D+00
     25  0.254586D-03  0.505685D-02  0.138417D-02 -0.142382D-02  0.119190D+00
     26 -0.762775D-02  0.377271D-02 -0.266168D-02 -0.777153D-03 -0.120438D-01
     27 -0.571167D-02  0.228494D-02 -0.100298D-01  0.171306D-02 -0.147321D-01
               26            27 
     26  0.139907D+00
     27  0.137036D-01  0.179654D+00
 Leave Link  716 at Tue Mar  6 16:27:12 2018, MaxMem=   536870912 cpu:         0.1
 (Enter /share/apps//mg09/l103.exe)

 GradGradGradGradGradGradGradGradGradGradGradGradGradGradGradGradGradGrad
 Berny optimization.
 Search for a local minimum.
 Step number   1 out of a maximum of  100
 All quantities printed in internal units (Hartrees-Bohrs-Radians)
 Second derivative matrix not updated -- first step.
 ITU=  0
     Eigenvalues ---    0.08631   0.11266   0.11728   0.13174   0.13649
     Eigenvalues ---    0.14460   0.14909   0.15176   0.16187   0.16213
     Eigenvalues ---    0.16666   0.21799   0.23054   0.23179   0.24876
     Eigenvalues ---    0.25660   0.27284   0.27515   0.28213   0.28814
     Eigenvalues ---    0.31611
 RFO step:  Lambda=-7.87073729D-03 EMin= 8.63134999D-02
 Linear search not attempted -- first point.
 TrRot=  0.001615 -0.000187 -0.001124  0.000005  0.000027  0.000005
 Variable       Old X    -DE/DX   Delta X   Delta X   Delta X     New X
                                 (Linear)    (Quad)   (Total)
    X1       -1.06727   0.00569   0.00000   0.02837   0.03012  -1.03715
    Y1       -2.59962   0.00932   0.00000   0.05988   0.05968  -2.53994
    Z1        4.25959  -0.00998   0.00000  -0.05878  -0.05987   4.19971
    X2        2.32563  -0.00378   0.00000  -0.02643  -0.02486   2.30077
    Y2        3.98408  -0.00857   0.00000  -0.05492  -0.05508   3.92900
    Z2       -0.27451   0.00268   0.00000   0.01325   0.01207  -0.26244
    X3        3.99525  -0.01296   0.00000  -0.06966  -0.06796   3.92729
    Y3       -0.61400   0.00175   0.00000   0.00962   0.00947  -0.60453
    Z3        3.07082  -0.00586   0.00000  -0.04077  -0.04200   3.02882
    X4        4.41582  -0.01019   0.00000  -0.06840  -0.06686   4.34896
    Y4       -0.54423   0.00098   0.00000   0.00800   0.00786  -0.53637
    Z4       -3.07821   0.00705   0.00000   0.05311   0.05187  -3.02634
    X5       -4.19150   0.00816   0.00000   0.05241   0.05404  -4.13746
    Y5       -2.21674   0.00356   0.00000   0.02870   0.02847  -2.18827
    Z5       -0.31414   0.00117   0.00000   0.01238   0.01136  -0.30278
    X6       -3.35179   0.00645   0.00000   0.04224   0.04380  -3.30798
    Y6        3.36840  -0.00580   0.00000  -0.04147  -0.04169   3.32671
    Z6       -0.52274   0.00149   0.00000   0.01202   0.01098  -0.51176
    X7       -0.91758   0.00363   0.00000   0.02256   0.02406  -0.89352
    Y7       -0.01964  -0.00059   0.00000  -0.00232  -0.00252  -0.02216
    Z7       -4.26802   0.01078   0.00000   0.06285   0.06175  -4.20627
    X8        1.10947  -0.00102   0.00000  -0.00921  -0.00756   1.10191
    Y8       -4.43016   0.00939   0.00000   0.05882   0.05865  -4.37152
    Z8       -0.51404   0.00251   0.00000   0.01527   0.01412  -0.49993
    X9       -0.50185   0.00402   0.00000   0.01353   0.01522  -0.48663
    Y9        2.59890  -0.01004   0.00000  -0.06465  -0.06484   2.53406
    Z9        4.23594  -0.00984   0.00000  -0.05917  -0.06028   4.17566
         Item               Value     Threshold  Converged?
 Maximum Force            0.012964     0.000450     NO 
 RMS     Force            0.006860     0.000300     NO 
 Maximum Displacement     0.067961     0.001800     NO 
 RMS     Displacement     0.042752     0.001200     NO 
 Predicted change in Energy=-4.129733D-03
 Lowest energy point so far.  Saving SCF results.
 GradGradGradGradGradGradGradGradGradGradGradGradGradGradGradGradGradGrad

 Leave Link  103 at Tue Mar  6 16:27:12 2018, MaxMem=   536870912 cpu:         0.2
 (Enter /share/apps//mg09/l202.exe)
                          Input orientation:                          
 ---------------------------------------------------------------------
 Center     Atomic      Atomic             Coordinates (Angstroms)
 Number     Number       Type             X           Y           Z
 ---------------------------------------------------------------------
      1         32           0       -0.548834   -1.344079    2.222393
      2         83           0        1.217515    2.079139   -0.138875
      3         50           0        2.078232   -0.319902    1.602783
      4         50           0        2.301369   -0.283834   -1.601470
      5         83           0       -2.189450   -1.157985   -0.160223
      6         83           0       -1.750510    1.760417   -0.270812
      7         32           0       -0.472829   -0.011726   -2.225863
      8         83           0        0.583107   -2.313307   -0.264550
      9         32           0       -0.257512    1.340969    2.209662
 ---------------------------------------------------------------------
                    Distance matrix (angstroms):
                    1          2          3          4          5
     1  Ge   0.000000
     2  Bi   4.518186   0.000000
     3  Sn   2.886925   3.087006   0.000000
     4  Sn   4.885664   2.982879   3.212215   0.000000
     5  Bi   2.898812   4.699664   4.692940   4.796748   0.000000
     6  Bi   4.159086   2.988003   4.743138   4.729413   2.953298
     7  Ge   4.644128   3.403600   4.611010   2.856586   2.920200
     8  Bi   2.899237   4.439804   3.113839   2.976331   3.005449
     9  Ge   2.700836   2.869883   2.929590   4.869558   3.948862
                    6          7          8          9
     6  Bi   0.000000
     7  Ge   2.931755   0.000000
     8  Bi   4.694789   3.202972   0.000000
     9  Ge   2.925360   4.642201   4.492450   0.000000
 Stoichiometry    Bi4Ge3Sn2
 Framework group  C1[X(Bi4Ge3Sn2)]
 Deg. of freedom    21
 Full point group                 C1      NOp   1
 RotChk:  IX=0 Diff= 7.16D-02
 Largest Abelian subgroup         C1      NOp   1
 Largest concise Abelian subgroup C1      NOp   1
                         Standard orientation:                         
 ---------------------------------------------------------------------
 Center     Atomic      Atomic             Coordinates (Angstroms)
 Number     Number       Type             X           Y           Z
 ---------------------------------------------------------------------
      1         32           0       -0.479641   -1.370674    2.219618
      2         83           0        1.109677    2.138294   -0.141571
      3         50           0        2.091822   -0.214613    1.598782
      4         50           0        2.310888   -0.166333   -1.605591
      5         83           0       -2.129030   -1.267171   -0.161960
      6         83           0       -1.838483    1.669745   -0.271847
      7         32           0       -0.473910   -0.034848   -2.228243
      8         83           0        0.698401   -2.280602   -0.268318
      9         32           0       -0.324648    1.325685    2.207600
 ---------------------------------------------------------------------
 Rotational constants (GHZ):      0.1023994      0.1015709      0.0785051
 Leave Link  202 at Tue Mar  6 16:27:13 2018, MaxMem=   536870912 cpu:         0.1
 (Enter /share/apps//mg09/l301.exe)
 Standard basis: def2TZVP (5D, 7F)
 Ernie: Thresh=  0.10000D-02 Tol=  0.10000D-05 Strict=F.
 There are   519 symmetry adapted cartesian basis functions of A   symmetry.
 There are   444 symmetry adapted basis functions of A   symmetry.
   444 basis functions,   963 primitive gaussians,   519 cartesian basis functions
   116 alpha electrons      116 beta electrons
       nuclear repulsion energy      3581.1766300296 Hartrees.
 IExCor= 1009 DFT=T Ex+Corr=PBE1PBE ExCW=0 ScaHFX=  0.250000
 ScaDFX=  0.750000  0.750000  1.000000  1.000000 ScalE2=  1.000000  1.000000
 IRadAn=      0 IRanWt=     -1 IRanGd=            0 ICorTp=0 IEmpDi=  4
 NAtoms=    9 NActive=    9 NUniq=    9 SFac= 1.00D+00 NAtFMM=   60 NAOKFM=F Big=F
 Integral buffers will be    131072 words long.
 Raffenetti 2 integral format.
 Two-electron integral symmetry is turned on.
 Leave Link  301 at Tue Mar  6 16:27:13 2018, MaxMem=   536870912 cpu:         0.2
 (Enter /share/apps//mg09/l302.exe)
 NPDir=0 NMtPBC=     1 NCelOv=     1 NCel=       1 NClECP=     1 NCelD=      1
         NCelK=      1 NCelE2=     1 NClLst=     1 CellRange=     0.0.
 One-electron integrals computed using PRISM.
   1 Symmetry operations used in ECPInt.
 ECPInt:  NShTT=   10440 NPrTT=   41973 LenC2=    9691 LenP2D=   27666.
 LDataN:  DoStor=T MaxTD1= 8 Len=  415
 NBasis=   444 RedAO= T EigKep=  1.19D-03  NBF=   444
 NBsUse=   444 1.00D-06 EigRej= -1.00D+00 NBFU=   444
 Precomputing XC quadrature grid using
 IXCGrd= 4 IRadAn=           0 IRanWt=          -1 IRanGd=           0 AccXCQ= 0.00D+00.
 Defaulting to unpruned grid for atomic number  50.
 Defaulting to unpruned grid for atomic number  83.
 Defaulting to unpruned grid for atomic number  83.
 Generated NRdTot=       0 NPtTot=           0 NUsed=           0 NTot=          32
 NSgBfM=   505   505   505   505   505 MxSgAt=     9 MxSgA2=     9.
 Leave Link  302 at Tue Mar  6 16:27:21 2018, MaxMem=   536870912 cpu:        30.4
 (Enter /share/apps//mg09/l303.exe)
 DipDrv:  MaxL=1.
 Leave Link  303 at Tue Mar  6 16:27:21 2018, MaxMem=   536870912 cpu:         0.5
 (Enter /share/apps//mg09/l401.exe)
 Initial guess from the checkpoint file:  "Isomer_55.chk"
 B after Tr=     0.000000    0.000000    0.000000
         Rot=    0.999680   -0.000147   -0.000263   -0.025309 Ang=  -2.90 deg.
 Guess basis will be translated and rotated to current coordinates.
 JPrj=2 DoOrth=T DoCkMO=T.
 Generating alternative initial guess.
 ExpMin= 4.62D-02 ExpMax= 4.66D+05 ExpMxC= 4.50D+03 IAcc=2 IRadAn=         4 AccDes= 0.00D+00
 Harris functional with IExCor= 1009 and IRadAn=       4 diagonalized for initial guess.
 HarFok:  IExCor= 1009 AccDes= 0.00D+00 IRadAn=         4 IDoV= 1 UseB2=F ITyADJ=14
 ICtDFT=  3500011 ScaDFX=  1.000000  1.000000  1.000000  1.000000
 Defaulting to unpruned grid for atomic number  83.
 Defaulting to unpruned grid for atomic number  83.
 Defaulting to unpruned grid for atomic number  83.
 Defaulting to unpruned grid for atomic number  83.
 FoFCou: FMM=F IPFlag=           0 FMFlag=      100000 FMFlg1=           0
         NFxFlg=           0 DoJE=T BraDBF=F KetDBF=T FulRan=T
         wScrn=  0.000000 ICntrl=     500 IOpCl=  0 I1Cent=   200000004 NGrid=           0
         NMat0=    1 NMatS0=      1 NMatT0=    0 NMatD0=    1 NMtDS0=    0 NMtDT0=    0
 Petite list used in FoFCou.
 Harris En= -7518.60682187262    
 Leave Link  401 at Tue Mar  6 16:27:25 2018, MaxMem=   536870912 cpu:        13.6
 (Enter /share/apps//mg09/l502.exe)
 Closed shell SCF:
 Using DIIS extrapolation, IDIIS=  1040.
 Integral symmetry usage will be decided dynamically.
 IVT=     1410107 IEndB=     1410107 NGot=   536870912 MDV=   536322046
 LenX=   536322046 LenY=   536052166
 Requested convergence on RMS density matrix=1.00D-08 within 768 cycles.
 Requested convergence on MAX density matrix=1.00D-06.
 Requested convergence on             energy=1.00D-06.
 No special actions if energy rises.
 Fock matrices will be formed incrementally for  20 cycles.

 Cycle   1  Pass 1  IDiag  1:
 FoFJK:  IHMeth= 1 ICntrl=       0 DoSepK=F KAlg= 0 I1Cent=   0 FoldK=F
 IRaf= 880000000 NMat=   1 IRICut=       1 DoRegI=T DoRafI=F ISym2E= 0.
 FoFCou: FMM=F IPFlag=           0 FMFlag=      100000 FMFlg1=           0
         NFxFlg=           0 DoJE=F BraDBF=F KetDBF=F FulRan=T
         wScrn=  0.000000 ICntrl=       0 IOpCl=  0 I1Cent=           0 NGrid=           0
         NMat0=    1 NMatS0=      1 NMatT0=    0 NMatD0=    1 NMtDS0=    0 NMtDT0=    0
 Symmetry not used in FoFCou.
 Defaulting to unpruned grid for atomic number  83.
 Defaulting to unpruned grid for atomic number  83.
 Defaulting to unpruned grid for atomic number  83.
 Defaulting to unpruned grid for atomic number  83.
 E= -7517.80616669885    
 DIIS: error= 6.11D-03 at cycle   1 NSaved=   1.
 NSaved= 1 IEnMin= 1 EnMin= -7517.80616669885     IErMin= 1 ErrMin= 6.11D-03
 ErrMax= 6.11D-03  0.00D+00 EMaxC= 1.00D-01 BMatC= 8.35D-03 BMatP= 8.35D-03
 IDIUse=3 WtCom= 9.39D-01 WtEn= 6.11D-02
 Coeff-Com:  0.100D+01
 Coeff-En:   0.100D+01
 Coeff:      0.100D+01
 Gap=     8.167 Goal=   None    Shift=    0.000
 GapD=    8.167 DampG=2.000 DampE=1.000 DampFc=2.0000 IDamp=-1.
 RMSDP=1.79D-04 MaxDP=5.33D-03              OVMax= 2.14D-02

 Cycle   2  Pass 1  IDiag  1:
 RMSU=  1.79D-04    CP:  1.00D+00
 E= -7517.80623494730     Delta-E=       -0.000068248459 Rises=F Damp=F
 DIIS: error= 1.47D-03 at cycle   2 NSaved=   2.
 NSaved= 2 IEnMin= 2 EnMin= -7517.80623494730     IErMin= 2 ErrMin= 1.47D-03
 ErrMax= 1.47D-03  0.00D+00 EMaxC= 1.00D-01 BMatC= 1.53D-03 BMatP= 8.35D-03
 IDIUse=3 WtCom= 9.85D-01 WtEn= 1.47D-02
 Coeff-Com:  0.193D+00 0.807D+00
 Coeff-En:   0.480D+00 0.520D+00
 Coeff:      0.197D+00 0.803D+00
 Gap=     0.113 Goal=   None    Shift=    0.000
 RMSDP=2.03D-04 MaxDP=9.13D-03 DE=-6.82D-05 OVMax= 1.55D-02

 Cycle   3  Pass 1  IDiag  1:
 RMSU=  1.84D-04    CP:  9.99D-01  5.53D-01
 E= -7517.80455955645     Delta-E=        0.001675390859 Rises=F Damp=F
 DIIS: error= 2.18D-03 at cycle   3 NSaved=   3.
 NSaved= 3 IEnMin= 2 EnMin= -7517.80623494730     IErMin= 2 ErrMin= 1.47D-03
 ErrMax= 2.18D-03  0.00D+00 EMaxC= 1.00D-01 BMatC= 3.54D-03 BMatP= 1.53D-03
 IDIUse=3 WtCom= 1.76D-01 WtEn= 8.24D-01
 Coeff-Com:  0.497D-02 0.603D+00 0.392D+00
 Coeff-En:   0.000D+00 0.659D+00 0.341D+00
 Coeff:      0.877D-03 0.649D+00 0.350D+00
 Gap=     0.115 Goal=   None    Shift=    0.000
 RMSDP=1.10D-04 MaxDP=5.42D-03 DE= 1.68D-03 OVMax= 1.20D-02

 Cycle   4  Pass 1  IDiag  1:
 RMSU=  3.71D-05    CP:  9.99D-01  8.08D-01  4.99D-01
 E= -7517.80727938042     Delta-E=       -0.002719823973 Rises=F Damp=F
 DIIS: error= 3.50D-04 at cycle   4 NSaved=   4.
 NSaved= 4 IEnMin= 4 EnMin= -7517.80727938042     IErMin= 4 ErrMin= 3.50D-04
 ErrMax= 3.50D-04  0.00D+00 EMaxC= 1.00D-01 BMatC= 1.71D-04 BMatP= 1.53D-03
 IDIUse=3 WtCom= 9.97D-01 WtEn= 3.50D-03
 Coeff-Com:  0.213D-04 0.436D+00 0.241D+00 0.324D+00
 Coeff-En:   0.000D+00 0.703D-01 0.000D+00 0.930D+00
 Coeff:      0.212D-04 0.434D+00 0.240D+00 0.326D+00
 Gap=     0.115 Goal=   None    Shift=    0.000
 RMSDP=3.63D-05 MaxDP=1.36D-03 DE=-2.72D-03 OVMax= 5.26D-03

 Cycle   5  Pass 1  IDiag  1:
 RMSU=  1.57D-05    CP:  9.99D-01  8.62D-01  4.49D-01  1.98D-01
 E= -7517.80741035224     Delta-E=       -0.000130971821 Rises=F Damp=F
 DIIS: error= 1.29D-04 at cycle   5 NSaved=   5.
 NSaved= 5 IEnMin= 5 EnMin= -7517.80741035224     IErMin= 5 ErrMin= 1.29D-04
 ErrMax= 1.29D-04  0.00D+00 EMaxC= 1.00D-01 BMatC= 2.14D-05 BMatP= 1.71D-04
 IDIUse=3 WtCom= 9.99D-01 WtEn= 1.29D-03
 Coeff-Com: -0.928D-03 0.228D+00 0.113D+00 0.272D+00 0.388D+00
 Coeff-En:   0.000D+00 0.000D+00 0.000D+00 0.176D+00 0.824D+00
 Coeff:     -0.927D-03 0.228D+00 0.113D+00 0.272D+00 0.389D+00
 Gap=     0.115 Goal=   None    Shift=    0.000
 RMSDP=1.17D-05 MaxDP=6.76D-04 DE=-1.31D-04 OVMax= 2.02D-03

 Cycle   6  Pass 1  IDiag  1:
 RMSU=  4.40D-06    CP:  9.99D-01  8.69D-01  4.44D-01  4.07D-01  5.31D-01
 E= -7517.80743410081     Delta-E=       -0.000023748569 Rises=F Damp=F
 DIIS: error= 1.79D-05 at cycle   6 NSaved=   6.
 NSaved= 6 IEnMin= 6 EnMin= -7517.80743410081     IErMin= 6 ErrMin= 1.79D-05
 ErrMax= 1.79D-05  0.00D+00 EMaxC= 1.00D-01 BMatC= 5.58D-07 BMatP= 2.14D-05
 IDIUse=1 WtCom= 1.00D+00 WtEn= 0.00D+00
 Coeff-Com: -0.491D-03 0.908D-01 0.447D-01 0.121D+00 0.212D+00 0.531D+00
 Coeff:     -0.491D-03 0.908D-01 0.447D-01 0.121D+00 0.212D+00 0.531D+00
 Gap=     0.115 Goal=   None    Shift=    0.000
 RMSDP=3.57D-06 MaxDP=1.72D-04 DE=-2.37D-05 OVMax= 4.33D-04

 Cycle   7  Pass 1  IDiag  1:
 RMSU=  2.86D-06    CP:  9.99D-01  8.73D-01  4.45D-01  4.12D-01  6.06D-01
                    CP:  6.34D-01
 E= -7517.80743413227     Delta-E=       -0.000000031458 Rises=F Damp=F
 DIIS: error= 2.13D-05 at cycle   7 NSaved=   7.
 NSaved= 7 IEnMin= 7 EnMin= -7517.80743413227     IErMin= 6 ErrMin= 1.79D-05
 ErrMax= 2.13D-05  0.00D+00 EMaxC= 1.00D-01 BMatC= 4.69D-07 BMatP= 5.58D-07
 IDIUse=1 WtCom= 1.00D+00 WtEn= 0.00D+00
 Coeff-Com: -0.183D-03 0.180D-01 0.956D-02 0.339D-01 0.847D-01 0.469D+00
 Coeff-Com:  0.385D+00
 Coeff:     -0.183D-03 0.180D-01 0.956D-02 0.339D-01 0.847D-01 0.469D+00
 Coeff:      0.385D+00
 Gap=     0.115 Goal=   None    Shift=    0.000
 RMSDP=2.25D-06 MaxDP=1.00D-04 DE=-3.15D-08 OVMax= 2.45D-04

 Cycle   8  Pass 1  IDiag  1:
 RMSU=  1.00D-06    CP:  9.99D-01  8.74D-01  4.47D-01  4.09D-01  6.09D-01
                    CP:  9.15D-01  4.73D-01
 E= -7517.80743472101     Delta-E=       -0.000000588745 Rises=F Damp=F
 DIIS: error= 5.92D-06 at cycle   8 NSaved=   8.
 NSaved= 8 IEnMin= 8 EnMin= -7517.80743472101     IErMin= 8 ErrMin= 5.92D-06
 ErrMax= 5.92D-06  0.00D+00 EMaxC= 1.00D-01 BMatC= 5.58D-08 BMatP= 4.69D-07
 IDIUse=1 WtCom= 1.00D+00 WtEn= 0.00D+00
 Coeff-Com:  0.747D-05-0.148D-01-0.609D-02-0.111D-01 0.153D-02 0.211D+00
 Coeff-Com:  0.287D+00 0.532D+00
 Coeff:      0.747D-05-0.148D-01-0.609D-02-0.111D-01 0.153D-02 0.211D+00
 Coeff:      0.287D+00 0.532D+00
 Gap=     0.115 Goal=   None    Shift=    0.000
 RMSDP=7.75D-07 MaxDP=5.25D-05 DE=-5.89D-07 OVMax= 8.09D-05

 Cycle   9  Pass 1  IDiag  1:
 RMSU=  2.99D-07    CP:  9.99D-01  8.75D-01  4.49D-01  4.11D-01  6.22D-01
                    CP:  9.51D-01  6.09D-01  5.47D-01
 E= -7517.80743477991     Delta-E=       -0.000000058895 Rises=F Damp=F
 DIIS: error= 1.30D-06 at cycle   9 NSaved=   9.
 NSaved= 9 IEnMin= 9 EnMin= -7517.80743477991     IErMin= 9 ErrMin= 1.30D-06
 ErrMax= 1.30D-06  0.00D+00 EMaxC= 1.00D-01 BMatC= 3.30D-09 BMatP= 5.58D-08
 IDIUse=1 WtCom= 1.00D+00 WtEn= 0.00D+00
 Coeff-Com:  0.213D-04-0.980D-02-0.410D-02-0.904D-02-0.719D-02 0.726D-01
 Coeff-Com:  0.126D+00 0.305D+00 0.526D+00
 Coeff:      0.213D-04-0.980D-02-0.410D-02-0.904D-02-0.719D-02 0.726D-01
 Coeff:      0.126D+00 0.305D+00 0.526D+00
 Gap=     0.115 Goal=   None    Shift=    0.000
 RMSDP=1.92D-07 MaxDP=1.01D-05 DE=-5.89D-08 OVMax= 3.19D-05

 Cycle  10  Pass 1  IDiag  1:
 RMSU=  1.14D-07    CP:  9.99D-01  8.75D-01  4.49D-01  4.13D-01  6.27D-01
                    CP:  9.53D-01  6.09D-01  6.40D-01  7.99D-01
 E= -7517.80743478319     Delta-E=       -0.000000003287 Rises=F Damp=F
 DIIS: error= 3.76D-07 at cycle  10 NSaved=  10.
 NSaved=10 IEnMin=10 EnMin= -7517.80743478319     IErMin=10 ErrMin= 3.76D-07
 ErrMax= 3.76D-07  0.00D+00 EMaxC= 1.00D-01 BMatC= 2.37D-10 BMatP= 3.30D-09
 IDIUse=1 WtCom= 1.00D+00 WtEn= 0.00D+00
 Coeff-Com:  0.871D-05-0.323D-02-0.129D-02-0.326D-02-0.339D-02 0.153D-01
 Coeff-Com:  0.353D-01 0.952D-01 0.257D+00 0.609D+00
 Coeff:      0.871D-05-0.323D-02-0.129D-02-0.326D-02-0.339D-02 0.153D-01
 Coeff:      0.353D-01 0.952D-01 0.257D+00 0.609D+00
 Gap=     0.115 Goal=   None    Shift=    0.000
 RMSDP=9.04D-08 MaxDP=3.89D-06 DE=-3.29D-09 OVMax= 1.13D-05

 Cycle  11  Pass 1  IDiag  1:
 RMSU=  7.55D-08    CP:  9.99D-01  8.75D-01  4.49D-01  4.13D-01  6.28D-01
                    CP:  9.57D-01  6.14D-01  6.46D-01  8.93D-01  7.45D-01
 E= -7517.80743478333     Delta-E=       -0.000000000133 Rises=F Damp=F
 DIIS: error= 5.08D-07 at cycle  11 NSaved=  11.
 NSaved=11 IEnMin=11 EnMin= -7517.80743478333     IErMin=10 ErrMin= 3.76D-07
 ErrMax= 5.08D-07  0.00D+00 EMaxC= 1.00D-01 BMatC= 3.18D-10 BMatP= 2.37D-10
 IDIUse=1 WtCom= 1.00D+00 WtEn= 0.00D+00
 Coeff-Com:  0.109D-05 0.173D-03 0.146D-03-0.129D-03-0.762D-03-0.917D-02
 Coeff-Com: -0.787D-02-0.108D-01 0.711D-01 0.574D+00 0.384D+00
 Coeff:      0.109D-05 0.173D-03 0.146D-03-0.129D-03-0.762D-03-0.917D-02
 Coeff:     -0.787D-02-0.108D-01 0.711D-01 0.574D+00 0.384D+00
 Gap=     0.115 Goal=   None    Shift=    0.000
 RMSDP=5.79D-08 MaxDP=2.23D-06 DE=-1.33D-10 OVMax= 7.29D-06

 Cycle  12  Pass 1  IDiag  1:
 RMSU=  2.30D-08    CP:  9.99D-01  8.75D-01  4.49D-01  4.13D-01  6.28D-01
                    CP:  9.59D-01  6.18D-01  6.48D-01  9.13D-01  1.00D+00
                    CP:  4.64D-01
 E= -7517.80743478378     Delta-E=       -0.000000000455 Rises=F Damp=F
 DIIS: error= 7.60D-08 at cycle  12 NSaved=  12.
 NSaved=12 IEnMin=12 EnMin= -7517.80743478378     IErMin=12 ErrMin= 7.60D-08
 ErrMax= 7.60D-08  0.00D+00 EMaxC= 1.00D-01 BMatC= 1.46D-11 BMatP= 2.37D-10
 IDIUse=1 WtCom= 1.00D+00 WtEn= 0.00D+00
 Coeff-Com: -0.586D-06 0.579D-03 0.283D-03 0.371D-03 0.560D-04-0.794D-02
 Coeff-Com: -0.104D-01-0.210D-01 0.784D-02 0.281D+00 0.242D+00 0.508D+00
 Coeff:     -0.586D-06 0.579D-03 0.283D-03 0.371D-03 0.560D-04-0.794D-02
 Coeff:     -0.104D-01-0.210D-01 0.784D-02 0.281D+00 0.242D+00 0.508D+00
 Gap=     0.115 Goal=   None    Shift=    0.000
 RMSDP=1.42D-08 MaxDP=9.86D-07 DE=-4.55D-10 OVMax= 2.34D-06

 Cycle  13  Pass 1  IDiag  1:
 RMSU=  8.26D-09    CP:  9.99D-01  8.75D-01  4.49D-01  4.13D-01  6.28D-01
                    CP:  9.60D-01  6.18D-01  6.48D-01  9.26D-01  1.04D+00
                    CP:  5.44D-01  7.18D-01
 E= -7517.80743478371     Delta-E=        0.000000000069 Rises=F Damp=F
 DIIS: error= 2.16D-08 at cycle  13 NSaved=  13.
 NSaved=13 IEnMin=12 EnMin= -7517.80743478378     IErMin=13 ErrMin= 2.16D-08
 ErrMax= 2.16D-08  0.00D+00 EMaxC= 1.00D-01 BMatC= 1.50D-12 BMatP= 1.46D-11
 IDIUse=1 WtCom= 1.00D+00 WtEn= 0.00D+00
 Coeff-Com: -0.500D-06 0.315D-03 0.144D-03 0.237D-03 0.179D-03-0.321D-02
 Coeff-Com: -0.514D-02-0.105D-01-0.735D-02 0.761D-01 0.800D-01 0.282D+00
 Coeff-Com:  0.588D+00
 Coeff:     -0.500D-06 0.315D-03 0.144D-03 0.237D-03 0.179D-03-0.321D-02
 Coeff:     -0.514D-02-0.105D-01-0.735D-02 0.761D-01 0.800D-01 0.282D+00
 Coeff:      0.588D+00
 Gap=     0.115 Goal=   None    Shift=    0.000
 RMSDP=4.88D-09 MaxDP=2.84D-07 DE= 6.91D-11 OVMax= 8.66D-07

 SCF Done:  E(RPBE1PBE) =  -7517.80743478     A.U. after   13 cycles
            NFock= 13  Conv=0.49D-08     -V/T= 2.1284
 KE= 6.662149395003D+03 PE=-2.475379123414D+04 EE= 6.992657774322D+03
 Leave Link  502 at Tue Mar  6 16:39:02 2018, MaxMem=   536870912 cpu:      2716.0
 (Enter /share/apps//mg09/l701.exe)
 Compute integral first derivatives.
 ... and contract with generalized density number  0.
   1 Symmetry operations used in ECPInt.
 ECPInt:  NShTT=   10440 NPrTT=   41973 LenC2=    9691 LenP2D=   27666.
 LDataN:  DoStor=T MaxTD1= 9 Len=  602
 Leave Link  701 at Tue Mar  6 16:39:26 2018, MaxMem=   536870912 cpu:        85.9
 (Enter /share/apps//mg09/l702.exe)
 L702 exits ... SP integral derivatives will be done elsewhere.
 Leave Link  702 at Tue Mar  6 16:39:27 2018, MaxMem=   536870912 cpu:         0.1
 (Enter /share/apps//mg09/l703.exe)
 Compute integral first derivatives, UseDBF=F ICtDFT=           0.
 Integral derivatives from FoFJK, PRISM(SPDF).
 Calling FoFJK, ICntrl=      2127 FMM=F ISym2X=0 I1Cent= 0 IOpClX= 0 NMat=1 NMatS=1 NMatT=0.
 FoFJK:  IHMeth= 1 ICntrl=    2127 DoSepK=F KAlg= 0 I1Cent=   0 FoldK=F
 IRaf=         0 NMat=   1 IRICut=       1 DoRegI=T DoRafI=F ISym2E= 0.
 FoFCou: FMM=F IPFlag=           0 FMFlag=      100000 FMFlg1=         800
         NFxFlg=           0 DoJE=F BraDBF=F KetDBF=F FulRan=T
         wScrn=  0.000000 ICntrl=    2127 IOpCl=  0 I1Cent=           0 NGrid=           0
         NMat0=    1 NMatS0=      1 NMatT0=    0 NMatD0=    1 NMtDS0=    0 NMtDT0=    0
 Symmetry not used in FoFCou.
 Defaulting to unpruned grid for atomic number  83.
 Defaulting to unpruned grid for atomic number  83.
 Defaulting to unpruned grid for atomic number  83.
 Defaulting to unpruned grid for atomic number  83.
 Leave Link  703 at Tue Mar  6 16:43:15 2018, MaxMem=   536870912 cpu:       831.8
 (Enter /share/apps//mg09/l716.exe)
 Dipole        =-1.28416102D-01 2.68880726D-02-5.14223707D-01
 ***** Axes restored to original set *****
 -------------------------------------------------------------------
 Center     Atomic                   Forces (Hartrees/Bohr)
 Number     Number              X              Y              Z
 -------------------------------------------------------------------
      1       32           0.003235006    0.005465182   -0.004396355
      2       83          -0.000520912   -0.002062864    0.000942795
      3       50          -0.006374245    0.000846749   -0.001870942
      4       50          -0.003808177    0.000331391    0.002563460
      5       83           0.001547056   -0.000041275    0.000420914
      6       83           0.001396255   -0.000409090    0.000303487
      7       32           0.002126694   -0.000336840    0.006000125
      8       83           0.000121921    0.002248828    0.000566401
      9       32           0.002276401   -0.006042079   -0.004529886
 -------------------------------------------------------------------
 Cartesian Forces:  Max     0.006374245 RMS     0.003006963
 Leave Link  716 at Tue Mar  6 16:43:15 2018, MaxMem=   536870912 cpu:         0.0
 (Enter /share/apps//mg09/l103.exe)

 GradGradGradGradGradGradGradGradGradGradGradGradGradGradGradGradGradGrad
 Berny optimization.
 Search for a local minimum.
 Step number   2 out of a maximum of  100
 All quantities printed in internal units (Hartrees-Bohrs-Radians)
 Update second derivatives using D2CorN and points    1    2
 DE= -5.56D-03 DEPred=-4.13D-03 R= 1.35D+00
 TightC=F SS=  1.41D+00  RLast= 2.22D-01 DXNew= 5.0454D-01 6.6643D-01
 Trust test= 1.35D+00 RLast= 2.22D-01 DXMaxT set to 5.05D-01
 ITU=  1  0
     Eigenvalues ---    0.08583   0.09426   0.11315   0.11735   0.13174
     Eigenvalues ---    0.13903   0.14546   0.14909   0.16185   0.16233
     Eigenvalues ---    0.16586   0.21809   0.23014   0.23182   0.24775
     Eigenvalues ---    0.25661   0.27262   0.27523   0.28213   0.28814
     Eigenvalues ---    0.31610
 RFO step:  Lambda=-3.28843989D-04 EMin= 8.58261247D-02
 Quartic linear search produced a step of  0.61852.
 TrRot=  0.000244 -0.000044 -0.000064  0.000000  0.000048  0.000000
 Variable       Old X    -DE/DX   Delta X   Delta X   Delta X     New X
                                 (Linear)    (Quad)   (Total)
    X1       -1.03715   0.00324   0.01863   0.00623   0.02530  -1.01184
    Y1       -2.53994   0.00547   0.03691   0.01081   0.04768  -2.49226
    Z1        4.19971  -0.00440  -0.03703  -0.00636  -0.04341   4.15630
    X2        2.30077  -0.00052  -0.01538   0.00672  -0.00842   2.29234
    Y2        3.92900  -0.00206  -0.03407   0.00848  -0.02563   3.90337
    Z2       -0.26244   0.00094   0.00747   0.00172   0.00901  -0.25343
    X3        3.92729  -0.00637  -0.04204  -0.00687  -0.04852   3.87877
    Y3       -0.60453   0.00085   0.00586   0.00102   0.00683  -0.59770
    Z3        3.02882  -0.00187  -0.02598   0.00129  -0.02494   3.00388
    X4        4.34896  -0.00381  -0.04136   0.00319  -0.03807   4.31089
    Y4       -0.53637   0.00033   0.00486  -0.00026   0.00455  -0.53181
    Z4       -3.02634   0.00256   0.03209   0.00194   0.03375  -2.99259
    X5       -4.13746   0.00155   0.03342  -0.01280   0.02085  -4.11661
    Y5       -2.18827  -0.00004   0.01761  -0.01208   0.00549  -2.18279
    Z5       -0.30278   0.00042   0.00703   0.00060   0.00776  -0.29501
    X6       -3.30798   0.00140   0.02709  -0.00848   0.01884  -3.28915
    Y6        3.32671  -0.00041  -0.02579   0.01459  -0.01124   3.31547
    Z6       -0.51176   0.00030   0.00679  -0.00124   0.00565  -0.50611
    X7       -0.89352   0.00213   0.01488   0.00178   0.01670  -0.87682
    Y7       -0.02216  -0.00034  -0.00156  -0.00034  -0.00194  -0.02410
    Z7       -4.20627   0.00600   0.03820   0.01119   0.04936  -4.15691
    X8        1.10191   0.00012  -0.00467   0.00343  -0.00102   1.10089
    Y8       -4.37152   0.00225   0.03627  -0.00922   0.02701  -4.34451
    Z8       -0.49993   0.00057   0.00873  -0.00035   0.00826  -0.49167
    X9       -0.48663   0.00228   0.00942   0.00447   0.01434  -0.47229
    Y9        2.53406  -0.00604  -0.04011  -0.01260  -0.05275   2.48132
    Z9        4.17566  -0.00453  -0.03728  -0.00812  -0.04545   4.13021
         Item               Value     Threshold  Converged?
 Maximum Force            0.006374     0.000450     NO 
 RMS     Force            0.003007     0.000300     NO 
 Maximum Displacement     0.052747     0.001800     NO 
[...]
      X       X         X                                                                                                            
      X       X         X                                                                                                            
      X                 X                                                                                                            
      X                 X                                                                                                            
      X                 X                                                                                                            
      X                 X                                                                                                            
      X                 X                                                                                                            
      X                                                                                                                              
      X                                                                                                                              
      X                                                                                                                              
      X                                                                                                                              
      X                                                                                                                              
 
 ***** Axes restored to original set *****
 -------------------------------------------------------------------
 Center     Atomic                   Forces (Hartrees/Bohr)
 Number     Number              X              Y              Z
 -------------------------------------------------------------------
      1       32          -0.000019158   -0.000174579    0.000080644
      2       83          -0.000228356   -0.000130822   -0.000220457
      3       50           0.000009184    0.000030228   -0.000008326
      4       50           0.000152381   -0.000008521    0.000040813
      5       83           0.000033870    0.000100321    0.000061316
      6       83           0.000024791   -0.000085450    0.000129293
      7       32           0.000124161    0.000026972    0.000109050
      8       83          -0.000111824    0.000109203   -0.000212089
      9       32           0.000014952    0.000132647    0.000019756
 -------------------------------------------------------------------
 Cartesian Forces:  Max     0.000228356 RMS     0.000111637
 Force constants in Cartesian coordinates: 
                1             2             3             4             5 
      1  0.499902D-01
      2  0.101858D-01  0.525285D-01
      3 -0.610875D-02 -0.534515D-02  0.660061D-01
      4 -0.476290D-02  0.750169D-03  0.244101D-03  0.749954D-01
      5 -0.219168D-02 -0.350618D-02  0.291851D-03  0.256237D-02  0.728017D-01
      6  0.158548D-02  0.482379D-02 -0.464478D-02 -0.149569D-01 -0.807968D-02
      7 -0.255916D-01 -0.979346D-02  0.265274D-02 -0.423055D-02  0.441602D-02
      8 -0.112615D-01 -0.149602D-02  0.489906D-02  0.576168D-02 -0.177796D-01
      9  0.678348D-02  0.356013D-02 -0.245290D-02 -0.622888D-02  0.132893D-01
     10 -0.167400D-02 -0.604258D-03 -0.654354D-03 -0.634915D-02  0.100128D-01
     11 -0.310600D-02  0.684496D-03  0.162451D-02  0.122686D-01 -0.295154D-01
     12  0.166329D-02 -0.128583D-02 -0.312360D-02  0.971654D-02 -0.154064D-01
     13 -0.154826D-01 -0.100771D-02 -0.147767D-01  0.356386D-04 -0.130065D-02
     14  0.981009D-03  0.496735D-03  0.391281D-02 -0.915518D-02 -0.187550D-02
     15 -0.133127D-01  0.426461D-02 -0.213002D-01  0.322931D-02  0.450585D-03
     16  0.282713D-04 -0.196236D-02 -0.197825D-03 -0.495171D-01 -0.568706D-02
     17  0.241341D-02 -0.324037D-02 -0.138317D-03 -0.437554D-02 -0.470282D-02
     18 -0.466462D-02  0.366930D-02 -0.206942D-02 -0.201030D-02 -0.753323D-03
     19  0.221415D-02  0.272436D-02  0.457643D-02 -0.999927D-03 -0.485437D-03
     20  0.412130D-02 -0.179843D-02  0.591737D-02 -0.330662D-02 -0.230330D-04
     21 -0.148774D-02 -0.316392D-02 -0.663841D-02 -0.163873D-02  0.144779D-02
     22 -0.301317D-02  0.387263D-02  0.114889D-01 -0.223719D-02 -0.318741D-02
     23  0.193099D-02 -0.974030D-02 -0.836628D-02  0.160639D-02 -0.696177D-02
     24  0.119457D-01 -0.996994D-02 -0.230536D-01 -0.319697D-02  0.214109D-02
     25 -0.170825D-02 -0.416513D-02  0.277541D-02 -0.693424D-02 -0.413894D-02
     26 -0.307327D-02 -0.339285D-01 -0.279587D-02 -0.611187D-02 -0.843744D-02
     27  0.359588D-02  0.344700D-02 -0.272322D-02  0.148418D-01  0.661875D-02
                6             7             8             9            10 
      6  0.435112D-01
      7 -0.433979D-02  0.670508D-01
      8  0.154407D-01 -0.244036D-02  0.409809D-01
      9 -0.780983D-02  0.104986D-01 -0.392565D-02  0.477983D-01
     10  0.973528D-02 -0.275341D-02  0.497767D-03  0.162095D-02  0.638649D-01
     11 -0.149721D-01  0.544836D-03  0.237082D-02  0.172846D-03  0.606677D-03
     12 -0.998627D-02  0.243924D-02  0.123152D-05 -0.166644D-01 -0.224182D-01
     13 -0.476237D-03 -0.558890D-02 -0.120443D-02 -0.764813D-03 -0.312600D-02
     14 -0.319179D-02  0.328406D-02 -0.160663D-02 -0.350523D-03  0.156111D-02
     15 -0.259441D-02 -0.313684D-02 -0.354878D-02 -0.217523D-02  0.266127D-02
     16 -0.442605D-02 -0.508572D-02  0.287237D-02 -0.514959D-03 -0.278969D-02
     17 -0.147041D-03 -0.199917D-02 -0.221472D-03  0.480041D-03 -0.841871D-03
     18  0.451278D-02 -0.705938D-03  0.391809D-02 -0.271822D-02  0.192970D-02
     19 -0.219971D-04 -0.333315D-03 -0.962549D-03 -0.717786D-02 -0.318079D-01
     20 -0.593509D-03 -0.714196D-03 -0.419939D-02  0.946434D-03  0.289436D-02
     21 -0.289433D-02 -0.200424D-03 -0.436316D-04 -0.423530D-02 -0.378612D-02
     22 -0.403769D-02 -0.689505D-02 -0.725069D-02 -0.903715D-02 -0.143071D-01
     23 -0.165636D-02 -0.662165D-02 -0.115316D-01 -0.985725D-02 -0.150573D-01
     24  0.179471D-02 -0.790937D-02 -0.118888D-01 -0.869474D-02  0.123761D-01
     25  0.169379D-01 -0.165723D-01  0.139877D-01  0.482066D-02 -0.105768D-02
     26  0.837598D-02  0.133239D-01 -0.651711D-02 -0.431536D-02  0.930751D-03
     27 -0.218891D-01  0.701789D-03 -0.485224D-02 -0.304768D-02 -0.146459D-02
               11            12            13            14            15 
     11  0.536474D-01
     12  0.303224D-02  0.449752D-01
     13 -0.236986D-02 -0.134719D-03  0.848967D-01
     14 -0.123943D-02 -0.590730D-03  0.468320D-02  0.769588D-01
     15  0.656247D-03 -0.509618D-03  0.225630D-02 -0.109065D-01  0.355595D-01
     16  0.305334D-02 -0.223228D-03 -0.655851D-02 -0.878847D-02  0.134081D-02
     17 -0.111520D-02  0.577768D-03 -0.775553D-02 -0.583407D-01  0.140198D-02
     18 -0.158059D-02  0.262480D-03  0.136712D-02  0.263670D-02  0.420149D-02
     19  0.296546D-02 -0.629827D-02 -0.141197D-01 -0.433648D-02  0.917083D-02
     20 -0.115245D-02  0.998979D-03 -0.826405D-02 -0.131155D-02  0.941713D-02
     21  0.604470D-03 -0.326816D-02  0.118436D-01  0.723570D-02 -0.156664D-01
     22 -0.176211D-01  0.132703D-01 -0.401002D-01  0.143961D-01  0.305438D-02
     23 -0.233594D-01  0.113324D-01  0.155324D-01 -0.104493D-01  0.730651D-03
     24  0.117653D-01 -0.830895D-02  0.267404D-03  0.681110D-03  0.439306D-02
     25  0.365801D-02  0.198505D-02  0.436077D-04 -0.262539D-02 -0.526339D-02
     26 -0.320873D-03  0.134034D-02  0.168668D-02 -0.263231D-02 -0.246595D-02
     27 -0.130294D-02 -0.337671D-02  0.418038D-03  0.573196D-03 -0.190823D-02
               16            17            18            19            20 
     16  0.802333D-01
     17 -0.547114D-02  0.817809D-01
     18  0.867257D-02  0.415189D-02  0.327104D-01
     19 -0.753206D-02  0.754710D-02  0.465672D-02  0.529809D-01
     20  0.109262D-01 -0.914892D-02 -0.111885D-01 -0.651785D-02  0.235521D-01
     21  0.751669D-02 -0.105255D-01 -0.148980D-01 -0.698793D-02 -0.629514D-03
     22  0.195461D-02  0.615870D-02  0.269203D-02  0.322812D-03  0.617178D-02
     23 -0.428366D-03 -0.392655D-02 -0.138117D-02  0.336288D-02 -0.591164D-02
     24  0.361509D-03  0.273916D-02 -0.128535D-02 -0.116443D-02  0.259007D-02
     25 -0.107331D-01  0.432404D-02 -0.119373D-01 -0.725000D-03 -0.531093D-02
     26  0.548547D-02 -0.108481D-02  0.527614D-03 -0.429747D-02 -0.668224D-05
     27 -0.125295D-01  0.146004D-02 -0.207161D-01  0.324651D-02 -0.745845D-02
               21            22            23            24            25 
     21  0.621758D-01
     22 -0.429307D-02  0.682233D-01
     23  0.181501D-02 -0.240689D-02  0.758838D-01
     24 -0.694406D-02 -0.133814D-01  0.811892D-02  0.466552D-01
     25 -0.966287D-03 -0.394801D-02  0.208161D-02  0.701481D-03  0.416349D-01
     26  0.325962D-02 -0.133196D-03 -0.400323D-02 -0.617693D-02 -0.781101D-02
     27 -0.763104D-02  0.243595D-03 -0.735904D-03 -0.455629D-02 -0.905356D-02
               26            27 
     26  0.569309D-01
     27  0.225056D-02  0.658484D-01
 Leave Link  716 at Tue Mar  6 19:54:55 2018, MaxMem=   536870912 cpu:         0.4
 (Enter /share/apps//mg09/l103.exe)

 GradGradGradGradGradGradGradGradGradGradGradGradGradGradGradGradGradGrad
 Berny optimization.
 Search for a local minimum.
 Step number   1 out of a maximum of    2
 All quantities printed in internal units (Hartrees-Bohrs-Radians)
 Second derivative matrix not updated -- analytic derivatives used.
 ITU=  0
     Eigenvalues ---   -0.00103   0.01806   0.02426   0.03735   0.03910
     Eigenvalues ---    0.04726   0.04970   0.05287   0.05620   0.06157
     Eigenvalues ---    0.06355   0.07244   0.08303   0.08666   0.09430
     Eigenvalues ---    0.11119   0.11236   0.12155   0.13944   0.14355
     Eigenvalues ---    0.14838
 Eigenvalue     1 is  -1.03D-03 should be greater than     0.000000 Eigenvector:
                          Y7        Z6        Z2        Z5        Y5
   1                    0.40851   0.39831  -0.35325  -0.33400  -0.25487
                          X9        Y4        Y6        X6        Z8
   1                    0.24468  -0.21042  -0.19636  -0.19004   0.17631
 Angle between quadratic step and forces=  68.29 degrees.
 Linear search not attempted -- first point.
 TrRot=  0.000746  0.001950  0.000233  1.350006 -0.000249 -1.350291
 Variable       Old X    -DE/DX   Delta X   Delta X   Delta X     New X
                                 (Linear)    (Quad)   (Total)
    X1       -1.00278  -0.00002   0.00000  -0.01963  -0.01981  -1.02259
    Y1       -2.47984  -0.00017   0.00000   0.01621   0.01745  -2.46239
    Z1        4.14390   0.00008   0.00000  -0.01155  -0.01197   4.13193
    X2        2.29517  -0.00023   0.00000  -0.02423  -0.02236   2.27281
    Y2        3.92550  -0.00013   0.00000  -0.02018  -0.01880   3.90669
    Z2       -0.26637  -0.00022   0.00000  -0.05532  -0.05402  -0.32039
    X3        3.86975   0.00001   0.00000  -0.00508  -0.00466   3.86509
    Y3       -0.59591   0.00003   0.00000   0.00700   0.00711  -0.58880
    Z3        3.00594  -0.00001   0.00000   0.00254   0.00284   3.00877
    X4        4.32108   0.00015   0.00000   0.01823   0.01897   4.34006
    Y4       -0.53267  -0.00001   0.00000  -0.02940  -0.02797  -0.56064
    Z4       -2.98570   0.00004   0.00000   0.00654   0.00687  -2.97883
    X5       -4.13473   0.00003   0.00000  -0.00151  -0.00138  -4.13611
    Y5       -2.18788   0.00010   0.00000  -0.03006  -0.02685  -2.21473
    Z5       -0.28994   0.00006   0.00000  -0.03764  -0.03818  -0.32812
    X6       -3.30603   0.00002   0.00000  -0.02843  -0.02671  -3.33275
    Y6        3.33002  -0.00009   0.00000  -0.02476  -0.02175   3.30827
    Z6       -0.50875   0.00013   0.00000   0.05479   0.05565  -0.45310
    X7       -0.85984   0.00012   0.00000   0.02480   0.02577  -0.83407
    Y7       -0.02731   0.00003   0.00000   0.05355   0.05673   0.02942
    Z7       -4.11001   0.00011   0.00000   0.01226   0.01245  -4.09756
    X8        1.09818  -0.00011   0.00000  -0.00287  -0.00334   1.09484
    Y8       -4.36648   0.00011   0.00000  -0.00761  -0.00585  -4.37234
    Z8       -0.50879  -0.00021   0.00000   0.01436   0.01359  -0.49520
    X9       -0.46461   0.00001   0.00000   0.03229   0.03351  -0.43109
    Y9        2.46157   0.00013   0.00000   0.01886   0.01993   2.48151
    Z9        4.11441   0.00002   0.00000   0.01196   0.01277   4.12718
         Item               Value     Threshold  Converged?
 Maximum Force            0.000228     0.000450     YES
 RMS     Force            0.000112     0.000300     YES
 Maximum Displacement     0.056729     0.001800     NO 
 RMS     Displacement     0.026031     0.001200     NO 
 Predicted change in Energy=-3.280520D-05
 GradGradGradGradGradGradGradGradGradGradGradGradGradGradGradGradGradGrad

 Leave Link  103 at Tue Mar  6 19:54:55 2018, MaxMem=   536870912 cpu:         0.1
 (Enter /share/apps//mg09/l9999.exe)
 1\1\GINC-COMPUTE-0-1\Freq\RPBE1PBE\def2TZVP\Bi4Ge3Sn2\RODRIGO\06-Mar-2
 018\0\\#P Geom=AllCheck Guess=TCheck SCRF=Check GenChk RPBE1PBE/def2TZ
 VP Freq\\01Final_coords.xyz_55\\0,1\Ge,-0.5306495487,-1.3122766848,2.1
 928585999\Bi,1.2145494185,2.0772838438,-0.1409579023\Sn,2.0477859333,-
 0.3153432042,1.5906731393\Sn,2.2866180136,-0.281877177,-1.5799658342\B
 i,-2.188006059,-1.1577754328,-0.1534308518\Bi,-1.7494777054,1.76217019
 26,-0.2692198262\Ge,-0.4550086014,-0.014453616,-2.1749234641\Bi,0.5811
 341964,-2.3106436058,-0.2692398809\Ge,-0.2458586477,1.3026086841,2.177
 2520205\\Version=ES64L-G09RevD.01\State=1-A\HF=-7517.8088595\RMSD=5.97
 8e-09\RMSF=1.116e-04\ZeroPoint=0.0056873\Thermal=0.0223304\Dipole=-0.1
 506522,0.0398903,-0.5502957\DipoleDeriv=-0.1417302,-0.0337826,-0.03281
 37,0.0489678,-0.0816808,-0.2481337,-0.0586464,-0.0711036,-0.0216627,-0
 .0859911,0.0753209,0.0464764,0.0614514,0.045376,0.0283856,0.0563262,0.
 0370477,0.0515883,0.1962399,-0.0224438,0.2412822,-0.0311371,0.0870438,
 -0.0349619,0.1194026,-0.0115895,0.0934066,0.2487931,-0.0432027,-0.3231
 157,-0.0527975,-0.0774038,0.0408282,-0.2108731,0.0222118,0.1181742,0.0
 028571,0.0086089,0.0051656,0.1256231,-0.0289817,0.0863657,0.0144416,0.
 0953862,0.0059517,-0.0491965,-0.0273653,0.00013,-0.1400681,-0.0076416,
 -0.0666404,0.003606,-0.0805259,-0.0872551,-0.0254041,0.0269459,0.01406
 97,0.0202781,0.0540767,-0.0194862,0.0582043,-0.0044665,-0.0733153,-0.0
 662643,-0.0328733,0.0382467,-0.022175,0.0860693,0.0026739,0.0378274,-0
 .0367773,-0.0161486,-0.0793039,0.0487919,0.0105588,-0.0101426,-0.07685
 78,0.2109687,-0.0202886,0.0498169,-0.0707391\Polar=394.7128764,-2.6513
 853,372.0819534,-4.9390869,-0.1163957,368.1363164\PG=C01 [X(Bi4Ge3Sn2)
 ]\NImag=1\\0.04999015,0.01018576,0.05252852,-0.00610875,-0.00534515,0.
 06600608,-0.00476290,0.00075017,0.00024410,0.07499542,-0.00219168,-0.0
 0350618,0.00029185,0.00256237,0.07280168,0.00158548,0.00482379,-0.0046
 4478,-0.01495691,-0.00807968,0.04351124,-0.02559161,-0.00979346,0.0026
 5274,-0.00423055,0.00441602,-0.00433979,0.06705084,-0.01126152,-0.0014
 9602,0.00489906,0.00576168,-0.01777957,0.01544067,-0.00244036,0.040980
 92,0.00678348,0.00356013,-0.00245290,-0.00622888,0.01328933,-0.0078098
 3,0.01049858,-0.00392565,0.04779827,-0.00167400,-0.00060426,-0.0006543
 5,-0.00634915,0.01001278,0.00973528,-0.00275341,0.00049777,0.00162095,
 0.06386490,-0.00310600,0.00068450,0.00162451,0.01226860,-0.02951537,-0
 .01497206,0.00054484,0.00237082,0.00017285,0.00060668,0.05364743,0.001
 66329,-0.00128583,-0.00312360,0.00971654,-0.01540639,-0.00998627,0.002
 43924,0.00000123,-0.01666436,-0.02241824,0.00303224,0.04497518,-0.0154
 8265,-0.00100771,-0.01477670,0.00003564,-0.00130065,-0.00047624,-0.005
 58890,-0.00120443,-0.00076481,-0.00312600,-0.00236986,-0.00013472,0.08
 489670,0.00098101,0.00049674,0.00391281,-0.00915518,-0.00187550,-0.003
 19179,0.00328406,-0.00160663,-0.00035052,0.00156111,-0.00123943,-0.000
 59073,0.00468320,0.07695877,-0.01331267,0.00426461,-0.02130019,0.00322
 931,0.00045058,-0.00259441,-0.00313684,-0.00354878,-0.00217523,0.00266
 127,0.00065625,-0.00050962,0.00225630,-0.01090647,0.03555954,0.0000282
 7,-0.00196236,-0.00019782,-0.04951711,-0.00568706,-0.00442605,-0.00508
 572,0.00287237,-0.00051496,-0.00278969,0.00305334,-0.00022323,-0.00655
 851,-0.00878847,0.00134081,0.08023327,0.00241341,-0.00324037,-0.000138
 32,-0.00437554,-0.00470282,-0.00014704,-0.00199917,-0.00022147,0.00048
 004,-0.00084187,-0.00111520,0.00057777,-0.00775553,-0.05834074,0.00140
 198,-0.00547114,0.08178087,-0.00466462,0.00366930,-0.00206942,-0.00201
 030,-0.00075332,0.00451278,-0.00070594,0.00391809,-0.00271822,0.001929
 70,-0.00158059,0.00026248,0.00136712,0.00263670,0.00420149,0.00867257,
 0.00415189,0.03271042,0.00221415,0.00272436,0.00457643,-0.00099993,-0.
 00048544,-0.00002200,-0.00033332,-0.00096255,-0.00717786,-0.03180786,0
 .00296546,-0.00629827,-0.01411967,-0.00433648,0.00917083,-0.00753206,0
 .00754710,0.00465672,0.05298085,0.00412130,-0.00179843,0.00591737,-0.0
 0330662,-0.00002303,-0.00059351,-0.00071420,-0.00419939,0.00094643,0.0
 0289436,-0.00115245,0.00099898,-0.00826405,-0.00131155,0.00941713,0.01
 092621,-0.00914892,-0.01118851,-0.00651785,0.02355209,-0.00148774,-0.0
 0316392,-0.00663841,-0.00163873,0.00144779,-0.00289433,-0.00020042,-0.
 00004363,-0.00423530,-0.00378612,0.00060447,-0.00326816,0.01184361,0.0
 0723570,-0.01566642,0.00751669,-0.01052553,-0.01489805,-0.00698793,-0.
 00062951,0.06217577,-0.00301317,0.00387263,0.01148895,-0.00223719,-0.0
 0318741,-0.00403769,-0.00689505,-0.00725069,-0.00903715,-0.01430713,-0
 .01762108,0.01327034,-0.04010022,0.01439614,0.00305438,0.00195461,0.00
 615870,0.00269203,0.00032281,0.00617178,-0.00429307,0.06822334,0.00193
 099,-0.00974030,-0.00836628,0.00160639,-0.00696177,-0.00165636,-0.0066
 2165,-0.01153156,-0.00985725,-0.01505732,-0.02335943,0.01133238,0.0155
 3235,-0.01044935,0.00073065,-0.00042837,-0.00392655,-0.00138117,0.0033
 6288,-0.00591164,0.00181501,-0.00240689,0.07588381,0.01194565,-0.00996
 994,-0.02305356,-0.00319697,0.00214109,0.00179471,-0.00790937,-0.01188
 876,-0.00869474,0.01237611,0.01176527,-0.00830895,0.00026740,0.0006811
 1,0.00439306,0.00036151,0.00273916,-0.00128535,-0.00116443,0.00259007,
 -0.00694406,-0.01338139,0.00811892,0.04665519,-0.00170825,-0.00416513,
 0.00277541,-0.00693424,-0.00413894,0.01693792,-0.01657229,0.01398774,0
 .00482066,-0.00105768,0.00365801,0.00198505,0.00004361,-0.00262539,-0.
 00526339,-0.01073307,0.00432404,-0.01193728,-0.00072500,-0.00531093,-0
 .00096629,-0.00394801,0.00208161,0.00070148,0.04163492,-0.00307327,-0.
 03392845,-0.00279587,-0.00611187,-0.00843744,0.00837598,0.01332392,-0.
 00651711,-0.00431536,0.00093075,-0.00032087,0.00134034,0.00168668,-0.0
 0263231,-0.00246595,0.00548547,-0.00108481,0.00052761,-0.00429747,-0.0
 0000668,0.00325962,-0.00013320,-0.00400323,-0.00617693,-0.00781101,0.0
 5693091,0.00359588,0.00344700,-0.00272322,0.01484184,0.00661875,-0.021
 88912,0.00070179,-0.00485224,-0.00304768,-0.00146459,-0.00130294,-0.00
 337671,0.00041804,0.00057320,-0.00190823,-0.01252951,0.00146004,-0.020
 71613,0.00324651,-0.00745845,-0.00763104,0.00024359,-0.00073590,-0.004
 55629,-0.00905356,0.00225056,0.06584842\\0.00001916,0.00017458,-0.0000
 8064,0.00022836,0.00013082,0.00022046,-0.00000918,-0.00003023,0.000008
 33,-0.00015238,0.00000852,-0.00004081,-0.00003387,-0.00010032,-0.00006
 132,-0.00002479,0.00008545,-0.00012929,-0.00012416,-0.00002697,-0.0001
 0905,0.00011182,-0.00010920,0.00021209,-0.00001495,-0.00013265,-0.0000
 1976\\\@


 ...THOSE SCIENCES ARE VAIN AND FULL OF ERRORS WHICH 
 ARE NOT BORN FROM EXPERIMENT, THE MOTHER OF CERTAINTY...

                          -- LEONARDO DA VINCI, 1452-1519
 Job cpu time:       0 days  4 hours 35 minutes 25.8 seconds.
 File lengths (MBytes):  RWF=    299 Int=      0 D2E=      0 Chk=     16 Scr=      1
 Normal termination of Gaussian 09 at Tue Mar  6 19:54:57 2018.
