 Entering Gaussian System, Link 0=/share/apps/mg09/g09
 Initial command:
 /share/apps//mg09/l1.exe "/state/partition1/gauss_tmp/Gau-21458.inp" -scrdir="/state/partition1/gauss_tmp/"
 Entering Link 1 = /share/apps//mg09/l1.exe PID=     21460.
  
 Copyright (c) 1988,1990,1992,1993,1995,1998,2003,2009,2013,
            Gaussian, Inc.  All Rights Reserved.
  
 This is part of the Gaussian(R) 09 program.  It is based on
 the Gaussian(R) 03 system (copyright 2003, Gaussian, Inc.),
 the Gaussian(R) 98 system (copyright 1998, Gaussian, Inc.),
 the Gaussian(R) 94 system (copyright 1995, Gaussian, Inc.),
 the Gaussian 92(TM) system (copyright 1992, Gaussian, Inc.),
 the Gaussian 90(TM) system (copyright 1990, Gaussian, Inc.),
 the Gaussian 88(TM) system (copyright 1988, Gaussian, Inc.),
 the Gaussian 86(TM) system (copyright 1986, Carnegie Mellon
 University), and the Gaussian 82(TM) system (copyright 1983,
 Carnegie Mellon University). Gaussian is a federally registered
 trademark of Gaussian, Inc.
  
 This software contains proprietary and confidential information,
 including trade secrets, belonging to Gaussian, Inc.
  
 This software is provided under written license and may be
 used, copied, transmitted, or stored only in accord with that
 written license.
  
 The following legend is applicable only to US Government
 contracts under FAR:
  
                    RESTRICTED RIGHTS LEGEND
  
 Use, reproduction and disclosure by the US Government is
 subject to restrictions as set forth in subparagraphs (a)
 and (c) of the Commercial Computer Software - Restricted
 Rights clause in FAR 52.227-19.
  
 Gaussian, Inc.
 340 Quinnipiac St., Bldg. 40, Wallingford CT 06492
  
  
 ---------------------------------------------------------------
 Warning -- This program may not be used in any manner that
 competes with the business of Gaussian, Inc. or will provide
 assistance to any competitor of Gaussian, Inc.  The licensee
 of this program is prohibited from giving any competitor of
 Gaussian, Inc. access to this program.  By using this program,
 the user acknowledges that Gaussian, Inc. is engaged in the
 business of creating and licensing software in the field of
 computational chemistry and represents and warrants to the
 licensee that it is not a competitor of Gaussian, Inc. and that
 it will not use this program in any manner prohibited above.
 ---------------------------------------------------------------
  

 Cite this work as:
 Gaussian 09, Revision D.01,
 M. J. Frisch, G. W. Trucks, H. B. Schlegel, G. E. Scuseria, 
 M. A. Robb, J. R. Cheeseman, G. Scalmani, V. Barone, B. Mennucci, 
 G. A. Petersson, H. Nakatsuji, M. Caricato, X. Li, H. P. Hratchian, 
 A. F. Izmaylov, J. Bloino, G. Zheng, J. L. Sonnenberg, M. Hada, 
 M. Ehara, K. Toyota, R. Fukuda, J. Hasegawa, M. Ishida, T. Nakajima, 
 Y. Honda, O. Kitao, H. Nakai, T. Vreven, J. A. Montgomery, Jr., 
 J. E. Peralta, F. Ogliaro, M. Bearpark, J. J. Heyd, E. Brothers, 
 K. N. Kudin, V. N. Staroverov, T. Keith, R. Kobayashi, J. Normand, 
 K. Raghavachari, A. Rendell, J. C. Burant, S. S. Iyengar, J. Tomasi, 
 M. Cossi, N. Rega, J. M. Millam, M. Klene, J. E. Knox, J. B. Cross, 
 V. Bakken, C. Adamo, J. Jaramillo, R. Gomperts, R. E. Stratmann, 
 O. Yazyev, A. J. Austin, R. Cammi, C. Pomelli, J. W. Ochterski, 
 R. L. Martin, K. Morokuma, V. G. Zakrzewski, G. A. Voth, 
 P. Salvador, J. J. Dannenberg, S. Dapprich, A. D. Daniels, 
 O. Farkas, J. B. Foresman, J. V. Ortiz, J. Cioslowski, 
 and D. J. Fox, Gaussian, Inc., Wallingford CT, 2013.
 
 ******************************************
 Gaussian 09:  ES64L-G09RevD.01 24-Apr-2013
                 6-Mar-2018 
 ******************************************
 %NProcShared=4
 Will use up to    4 processors via shared memory.
 %LindaWorkers=compute-0-5
 %chk=Isomer_48.chk
 %NProc=4
 Will use up to    4 processors via shared memory.
 %mem=4GB
 SetLPE:  input flags=" -vv -opt "Tsnet.Node.lindarsharg: ssh" "
 SetLPE:    new flags=" -vv -opt "Tsnet.Node.lindarsharg: ssh"  -nodelist 'compute-0-5.local'"
 Will use up to    1 processors via Linda.
 ----------------------------------------------------------------------
 #p PBE1PBE/Def2TZVP scf=(maxcycle=768) opt=(cartesian,maxcycle=512) fr
 eq
 ----------------------------------------------------------------------
 1/6=512,10=7,14=-1,18=10,26=3,38=1/1,3;
 2/12=2,17=6,18=5,29=2,40=1/2;
 3/5=44,7=101,11=2,16=1,25=1,30=1,71=1,74=-13/1,2,3;
 4//1;
 5/5=2,7=768,38=5/2;
 6/7=2,8=2,9=2,10=2,28=1/1;
 7/7=1,29=1/1,2,3,16;
 1/6=512,10=7,14=-1,18=10,26=3/3(2);
 2/29=1/2;
 99/12=1/99;
 2/29=1/2;
 3/5=44,7=101,11=2,16=1,25=1,30=1,71=1,74=-13/1,2,3;
 4/5=5,16=3,69=1/1;
 5/5=2,7=768,38=5/2;
 7/7=1/1,2,3,16;
 1/6=512,14=-1,18=10,26=3/3(-5);
 2/29=1/2;
 6/7=2,8=2,9=2,10=2,19=2,28=1/1;
 99/9=1,12=1/99;
 Leave Link    1 at Tue Mar  6 15:44:28 2018, MaxMem=   536870912 cpu:         0.2
 (Enter /share/apps//mg09/l101.exe)
 ---------------------
 01Final_coords.xyz_48
 ---------------------
 Symbolic Z-matrix:
 Charge =  0 Multiplicity = 1
 83                   -1.44234  -1.89514  -0.57321 
 32                    1.18735   0.47006   2.20155 
 83                   -1.70779   1.0093   -1.24495 
 83                    2.09406  -1.40491   0.02338 
 50                   -1.9169    0.08613   1.85448 
 83                    1.79617   1.47879  -0.65149 
 50                   -0.43191   2.63401   1.04674 
 32                    0.04863  -2.02774   1.93963 
 32                    0.51444  -0.58651  -2.32933 
 
 NAtoms=      9 NQM=        9 NQMF=       0 NMMI=      0 NMMIF=      0
                NMic=       0 NMicF=      0.
                    Isotopes and Nuclear Properties:
 (Nuclear quadrupole moments (NQMom) in fm**2, nuclear magnetic moments (NMagM)
  in nuclear magnetons)

  Atom         1           2           3           4           5           6           7           8           9
 IAtWgt=         209          74         209         209         118         209         118          74          74
 AtmWgt= 208.9804000  73.9211788 208.9804000 208.9804000 117.9018000 208.9804000 117.9018000  73.9211788  73.9211788
 NucSpn=           9           0           9           9           0           9           0           0           0
 AtZEff=   0.0000000   0.0000000   0.0000000   0.0000000   0.0000000   0.0000000   0.0000000   0.0000000   0.0000000
 NQMom=  -51.6000000   0.0000000 -51.6000000 -51.6000000   0.0000000 -51.6000000   0.0000000   0.0000000   0.0000000
 NMagM=    4.1106000   0.0000000   4.1106000   4.1106000   0.0000000   4.1106000   0.0000000   0.0000000   0.0000000
 AtZNuc=  83.0000000  32.0000000  83.0000000  83.0000000  50.0000000  83.0000000  50.0000000  32.0000000  32.0000000
 Leave Link  101 at Tue Mar  6 15:44:28 2018, MaxMem=   536870912 cpu:         0.2
 (Enter /share/apps//mg09/l103.exe)

 GradGradGradGradGradGradGradGradGradGradGradGradGradGradGradGradGradGrad
 Berny optimization.
 Initialization pass.
 No Z-matrix variables, so optimization will use Cartesian coordinates.
 Trust Radius=3.00D-01 FncErr=1.00D-07 GrdErr=1.00D-06
 Number of steps in this run=    100 maximum allowed number of steps=    100.
 GradGradGradGradGradGradGradGradGradGradGradGradGradGradGradGradGradGrad

 Leave Link  103 at Tue Mar  6 15:44:29 2018, MaxMem=   536870912 cpu:         0.1
 (Enter /share/apps//mg09/l202.exe)
 ---------------------------------------------------------------------------------------------------
                            Z-MATRIX (ANGSTROMS AND DEGREES)
   CD    Cent   Atom    N1       Length/X        N2       Alpha/Y        N3        Beta/Z          J
 ---------------------------------------------------------------------------------------------------
      1      1  Bi       0  -1.442341         -1.895139         -0.573211
      2      2  Ge       0   1.187349          0.470063          2.201552
      3      3  Bi       0  -1.707791          1.009296         -1.244947
      4      4  Bi       0   2.094060         -1.404908          0.023381
      5      5  Sn       0  -1.916904          0.086127          1.854483
      6      6  Bi       0   1.796165          1.478786         -0.651491
      7      7  Sn       0  -0.431911          2.634013          1.046738
      8      8  Ge       0   0.048625         -2.027742          1.939630
      9      9  Ge       0   0.514436         -0.586507         -2.329329
 ---------------------------------------------------------------------------------------------------
                         Z-Matrix orientation:                         
 ---------------------------------------------------------------------
 Center     Atomic      Atomic             Coordinates (Angstroms)
 Number     Number       Type             X           Y           Z
 ---------------------------------------------------------------------
      1         83           0       -1.442341   -1.895139   -0.573211
      2         32           0        1.187349    0.470063    2.201552
      3         83           0       -1.707791    1.009296   -1.244947
      4         83           0        2.094060   -1.404908    0.023381
      5         50           0       -1.916904    0.086127    1.854483
      6         83           0        1.796165    1.478786   -0.651491
      7         50           0       -0.431911    2.634013    1.046738
      8         32           0        0.048625   -2.027742    1.939630
      9         32           0        0.514436   -0.586507   -2.329329
 ---------------------------------------------------------------------
                    Distance matrix (angstroms):
                    1          2          3          4          5
     1  Bi   0.000000
     2  Ge   4.495415   0.000000
     3  Bi   2.992898   4.533317   0.000000
     4  Bi   3.619721   3.013647   4.678793   0.000000
     5  Sn   3.169278   3.147102   3.240746   4.654455   0.000000
     6  Bi   4.677330   3.086751   3.584734   2.976556   4.691086
     7  Sn   4.915122   2.939095   3.085352   4.872440   3.057675
     8  Ge   2.924882   2.757594   4.738157   2.871191   2.887732
     9  Ge   2.936911   4.700855   2.942918   2.949616   4.885502
                    6          7          8          9
     6  Bi   0.000000
     7  Sn   3.030322   0.000000
     8  Ge   4.697185   4.770758   0.000000
     9  Ge   2.953541   4.760793   4.529696   0.000000
 Stoichiometry    Bi4Ge3Sn2
 Framework group  C1[X(Bi4Ge3Sn2)]
 Deg. of freedom    21
 Full point group                 C1      NOp   1
 Largest Abelian subgroup         C1      NOp   1
 Largest concise Abelian subgroup C1      NOp   1
                         Standard orientation:                         
 ---------------------------------------------------------------------
 Center     Atomic      Atomic             Coordinates (Angstroms)
 Number     Number       Type             X           Y           Z
 ---------------------------------------------------------------------
      1         83           0       -1.442344   -1.895137   -0.573211
      2         32           0        1.187350    0.470061    2.201552
      3         83           0       -1.707790    1.009299   -1.244947
      4         83           0        2.094058   -1.404911    0.023381
      5         50           0       -1.916904    0.086130    1.854483
      6         83           0        1.796167    1.478783   -0.651491
      7         50           0       -0.431907    2.634014    1.046738
      8         32           0        0.048622   -2.027742    1.939630
      9         32           0        0.514435   -0.586508   -2.329329
 ---------------------------------------------------------------------
 Rotational constants (GHZ):      0.1000909      0.0959567      0.0813541
 Leave Link  202 at Tue Mar  6 15:44:29 2018, MaxMem=   536870912 cpu:         0.0
 (Enter /share/apps//mg09/l301.exe)
 Standard basis: def2TZVP (5D, 7F)
 Ernie: Thresh=  0.10000D-02 Tol=  0.10000D-05 Strict=F.
 There are   519 symmetry adapted cartesian basis functions of A   symmetry.
 There are   444 symmetry adapted basis functions of A   symmetry.
   444 basis functions,   963 primitive gaussians,   519 cartesian basis functions
   116 alpha electrons      116 beta electrons
       nuclear repulsion energy      3541.6387278161 Hartrees.
 IExCor= 1009 DFT=T Ex+Corr=PBE1PBE ExCW=0 ScaHFX=  0.250000
 ScaDFX=  0.750000  0.750000  1.000000  1.000000 ScalE2=  1.000000  1.000000
 IRadAn=      0 IRanWt=     -1 IRanGd=            0 ICorTp=0 IEmpDi=  4
 NAtoms=    9 NActive=    9 NUniq=    9 SFac= 1.00D+00 NAtFMM=   60 NAOKFM=F Big=F
 Integral buffers will be    131072 words long.
 Raffenetti 2 integral format.
 Two-electron integral symmetry is turned on.
 Leave Link  301 at Tue Mar  6 15:44:29 2018, MaxMem=   536870912 cpu:         0.2
 (Enter /share/apps//mg09/l302.exe)
 NPDir=0 NMtPBC=     1 NCelOv=     1 NCel=       1 NClECP=     1 NCelD=      1
         NCelK=      1 NCelE2=     1 NClLst=     1 CellRange=     0.0.
 One-electron integrals computed using PRISM.
   1 Symmetry operations used in ECPInt.
 ECPInt:  NShTT=   10440 NPrTT=   41973 LenC2=    9658 LenP2D=   27491.
 LDataN:  DoStor=T MaxTD1= 8 Len=  415
 NBasis=   444 RedAO= T EigKep=  1.32D-03  NBF=   444
 NBsUse=   444 1.00D-06 EigRej= -1.00D+00 NBFU=   444
 Precomputing XC quadrature grid using
 IXCGrd= 4 IRadAn=           0 IRanWt=          -1 IRanGd=           0 AccXCQ= 0.00D+00.
 Defaulting to unpruned grid for atomic number  83.
 Defaulting to unpruned grid for atomic number  50.
 Defaulting to unpruned grid for atomic number  83.
 Generated NRdTot=       0 NPtTot=           0 NUsed=           0 NTot=          32
 NSgBfM=   505   505   505   505   505 MxSgAt=     9 MxSgA2=     9.
 Leave Link  302 at Tue Mar  6 15:44:35 2018, MaxMem=   536870912 cpu:        26.3
 (Enter /share/apps//mg09/l303.exe)
 DipDrv:  MaxL=1.
 Leave Link  303 at Tue Mar  6 15:44:35 2018, MaxMem=   536870912 cpu:         0.2
 (Enter /share/apps//mg09/l401.exe)
 ExpMin= 4.62D-02 ExpMax= 4.66D+05 ExpMxC= 4.50D+03 IAcc=2 IRadAn=         4 AccDes= 0.00D+00
 Harris functional with IExCor= 1009 and IRadAn=       4 diagonalized for initial guess.
 HarFok:  IExCor= 1009 AccDes= 0.00D+00 IRadAn=         4 IDoV= 1 UseB2=F ITyADJ=14
 ICtDFT=  3500011 ScaDFX=  1.000000  1.000000  1.000000  1.000000
 Defaulting to unpruned grid for atomic number  83.
 Defaulting to unpruned grid for atomic number  83.
 Defaulting to unpruned grid for atomic number  83.
 Defaulting to unpruned grid for atomic number  83.
 FoFCou: FMM=F IPFlag=           0 FMFlag=      100000 FMFlg1=           0
         NFxFlg=           0 DoJE=T BraDBF=F KetDBF=T FulRan=T
         wScrn=  0.000000 ICntrl=     500 IOpCl=  0 I1Cent=   200000004 NGrid=           0
         NMat0=    1 NMatS0=      1 NMatT0=    0 NMatD0=    1 NMtDS0=    0 NMtDT0=    0
 Petite list used in FoFCou.
 Harris En= -7518.60387018203    
 JPrj=0 DoOrth=F DoCkMO=F.
 Leave Link  401 at Tue Mar  6 15:44:38 2018, MaxMem=   536870912 cpu:         9.9
 (Enter /share/apps//mg09/l502.exe)
 Closed shell SCF:
 Using DIIS extrapolation, IDIIS=  1040.
 Integral symmetry usage will be decided dynamically.
 IVT=     1410107 IEndB=     1410107 NGot=   536870912 MDV=   536322046
 LenX=   536322046 LenY=   536052166
 Requested convergence on RMS density matrix=1.00D-08 within 768 cycles.
 Requested convergence on MAX density matrix=1.00D-06.
 Requested convergence on             energy=1.00D-06.
 No special actions if energy rises.
 Fock matrices will be formed incrementally for  20 cycles.

 Cycle   1  Pass 1  IDiag  1:
 FoFJK:  IHMeth= 1 ICntrl=       0 DoSepK=F KAlg= 0 I1Cent=   0 FoldK=F
 IRaf= 880000000 NMat=   1 IRICut=       1 DoRegI=T DoRafI=F ISym2E= 0.
 FoFCou: FMM=F IPFlag=           0 FMFlag=      100000 FMFlg1=           0
         NFxFlg=           0 DoJE=F BraDBF=F KetDBF=F FulRan=T
         wScrn=  0.000000 ICntrl=       0 IOpCl=  0 I1Cent=           0 NGrid=           0
         NMat0=    1 NMatS0=      1 NMatT0=    0 NMatD0=    1 NMtDS0=    0 NMtDT0=    0
 Symmetry not used in FoFCou.
 Defaulting to unpruned grid for atomic number  83.
 Defaulting to unpruned grid for atomic number  83.
 Defaulting to unpruned grid for atomic number  83.
 Defaulting to unpruned grid for atomic number  83.
 E= -7517.24398473845    
 DIIS: error= 2.83D-02 at cycle   1 NSaved=   1.
 NSaved= 1 IEnMin= 1 EnMin= -7517.24398473845     IErMin= 1 ErrMin= 2.83D-02
 ErrMax= 2.83D-02  0.00D+00 EMaxC= 1.00D-01 BMatC= 1.46D+00 BMatP= 1.46D+00
 IDIUse=3 WtCom= 7.17D-01 WtEn= 2.83D-01
 Coeff-Com:  0.100D+01
 Coeff-En:   0.100D+01
 Coeff:      0.100D+01
 Gap=     0.100 Goal=   None    Shift=    0.000
 GapD=    0.100 DampG=0.500 DampE=0.500 DampFc=0.2500 IDamp=-1.
 Damping current iteration by 2.50D-01
 RMSDP=5.59D-03 MaxDP=1.97D-01              OVMax= 9.88D-01

 Cycle   2  Pass 1  IDiag  1:
 RMSU=  1.40D-03    CP:  1.00D+00
 E= -7517.36433952367     Delta-E=       -0.120354785218 Rises=F Damp=T
 DIIS: error= 1.69D-02 at cycle   2 NSaved=   2.
 NSaved= 2 IEnMin= 2 EnMin= -7517.36433952367     IErMin= 2 ErrMin= 1.69D-02
 ErrMax= 1.69D-02  0.00D+00 EMaxC= 1.00D-01 BMatC= 4.43D-01 BMatP= 1.46D+00
 IDIUse=3 WtCom= 8.31D-01 WtEn= 1.69D-01
 Coeff-Com: -0.674D+00 0.167D+01
 Coeff-En:   0.235D+00 0.765D+00
 Coeff:     -0.521D+00 0.152D+01
 Gap=    -0.209 Goal=   None    Shift=    0.000
 RMSDP=3.28D-03 MaxDP=1.71D-01 DE=-1.20D-01 OVMax= 8.06D-01

 Cycle   3  Pass 1  IDiag  1:
 RMSU=  3.16D-03    CP:  1.01D+00  3.70D-01
 E= -7515.70908228758     Delta-E=        1.655257236092 Rises=F Damp=F
 DIIS: error= 4.95D-02 at cycle   3 NSaved=   3.
 NSaved= 3 IEnMin= 2 EnMin= -7517.36433952367     IErMin= 2 ErrMin= 1.69D-02
 ErrMax= 4.95D-02  0.00D+00 EMaxC= 1.00D-01 BMatC= 1.63D+00 BMatP= 4.43D-01
 IDIUse=2 WtCom= 0.00D+00 WtEn= 1.00D+00
 EnCoef did     8 forward-backward iterations
 Coeff-En:   0.650D-01 0.856D+00 0.790D-01
 Coeff:      0.650D-01 0.856D+00 0.790D-01
 Gap=     0.188 Goal=   None    Shift=    0.000
 RMSDP=3.31D-03 MaxDP=1.39D-01 DE= 1.66D+00 OVMax= 5.00D-01

 Cycle   4  Pass 1  IDiag  1:
 RMSU=  1.61D-03    CP:  1.01D+00  1.58D+00  2.57D-01
 E= -7517.71480249634     Delta-E=       -2.005720208766 Rises=F Damp=F
 DIIS: error= 8.45D-03 at cycle   4 NSaved=   4.
 NSaved= 4 IEnMin= 4 EnMin= -7517.71480249634     IErMin= 4 ErrMin= 8.45D-03
 ErrMax= 8.45D-03  0.00D+00 EMaxC= 1.00D-01 BMatC= 2.24D-01 BMatP= 4.43D-01
 IDIUse=3 WtCom= 9.15D-01 WtEn= 8.45D-02
 Coeff-Com:  0.573D+00-0.436D+00-0.898D-01 0.952D+00
 Coeff-En:   0.933D-01 0.000D+00 0.000D+00 0.907D+00
 Coeff:      0.533D+00-0.399D+00-0.822D-01 0.948D+00
 Gap=     0.110 Goal=   None    Shift=    0.000
 RMSDP=1.03D-03 MaxDP=5.35D-02 DE=-2.01D+00 OVMax= 6.08D-02

 Cycle   5  Pass 1  IDiag  1:
 RMSU=  5.20D-04    CP:  1.00D+00  1.21D+00  7.03D-02  7.56D-01
 E= -7517.77806842030     Delta-E=       -0.063265923951 Rises=F Damp=F
 DIIS: error= 3.49D-03 at cycle   5 NSaved=   5.
 NSaved= 5 IEnMin= 5 EnMin= -7517.77806842030     IErMin= 5 ErrMin= 3.49D-03
 ErrMax= 3.49D-03  0.00D+00 EMaxC= 1.00D-01 BMatC= 3.15D-02 BMatP= 2.24D-01
 IDIUse=3 WtCom= 9.65D-01 WtEn= 3.49D-02
 Coeff-Com:  0.276D+00-0.277D+00-0.108D-01 0.460D+00 0.551D+00
 Coeff-En:   0.000D+00 0.000D+00 0.000D+00 0.116D+00 0.884D+00
 Coeff:      0.267D+00-0.267D+00-0.105D-01 0.448D+00 0.563D+00
 Gap=     0.123 Goal=   None    Shift=    0.000
 RMSDP=5.45D-04 MaxDP=2.94D-02 DE=-6.33D-02 OVMax= 6.16D-02

 Cycle   6  Pass 1  IDiag  1:
 RMSU=  3.37D-04    CP:  1.00D+00  1.11D+00  1.50D-01  7.55D-01  4.08D-01
 E= -7517.80344877962     Delta-E=       -0.025380359328 Rises=F Damp=F
 DIIS: error= 2.49D-03 at cycle   6 NSaved=   6.
 NSaved= 6 IEnMin= 6 EnMin= -7517.80344877962     IErMin= 6 ErrMin= 2.49D-03
 ErrMax= 2.49D-03  0.00D+00 EMaxC= 1.00D-01 BMatC= 5.61D-03 BMatP= 3.15D-02
 IDIUse=3 WtCom= 9.75D-01 WtEn= 2.49D-02
 Coeff-Com:  0.156D+00-0.201D+00-0.592D-02 0.207D+00 0.361D+00 0.483D+00
 Coeff-En:   0.000D+00 0.000D+00 0.000D+00 0.000D+00 0.121D+00 0.879D+00
 Coeff:      0.152D+00-0.196D+00-0.577D-02 0.202D+00 0.355D+00 0.492D+00
 Gap=     0.114 Goal=   None    Shift=    0.000
 RMSDP=2.26D-04 MaxDP=1.32D-02 DE=-2.54D-02 OVMax= 2.38D-02

 Cycle   7  Pass 1  IDiag  1:
 RMSU=  9.22D-05    CP:  1.00D+00  1.13D+00  1.37D-01  7.48D-01  6.07D-01
                    CP:  5.12D-01
 E= -7517.80691860000     Delta-E=       -0.003469820380 Rises=F Damp=F
 DIIS: error= 7.48D-04 at cycle   7 NSaved=   7.
 NSaved= 7 IEnMin= 7 EnMin= -7517.80691860000     IErMin= 7 ErrMin= 7.48D-04
 ErrMax= 7.48D-04  0.00D+00 EMaxC= 1.00D-01 BMatC= 8.84D-04 BMatP= 5.61D-03
 IDIUse=3 WtCom= 9.93D-01 WtEn= 7.48D-03
 Coeff-Com:  0.862D-01-0.115D+00-0.137D-02 0.102D+00 0.173D+00 0.329D+00
 Coeff-Com:  0.426D+00
 Coeff-En:   0.000D+00 0.000D+00 0.000D+00 0.000D+00 0.000D+00 0.209D+00
 Coeff-En:   0.791D+00
 Coeff:      0.856D-01-0.114D+00-0.136D-02 0.101D+00 0.171D+00 0.328D+00
 Coeff:      0.429D+00
 Gap=     0.113 Goal=   None    Shift=    0.000
 RMSDP=9.88D-05 MaxDP=4.67D-03 DE=-3.47D-03 OVMax= 1.33D-02

 Cycle   8  Pass 1  IDiag  1:
 RMSU=  6.62D-05    CP:  1.00D+00  1.12D+00  1.47D-01  7.50D-01  5.66D-01
                    CP:  5.95D-01  3.99D-01
 E= -7517.80769050063     Delta-E=       -0.000771900626 Rises=F Damp=F
 DIIS: error= 4.82D-04 at cycle   8 NSaved=   8.
 NSaved= 8 IEnMin= 8 EnMin= -7517.80769050063     IErMin= 8 ErrMin= 4.82D-04
 ErrMax= 4.82D-04  0.00D+00 EMaxC= 1.00D-01 BMatC= 2.91D-04 BMatP= 8.84D-04
 IDIUse=3 WtCom= 9.95D-01 WtEn= 4.82D-03
 Coeff-Com:  0.524D-01-0.701D-01-0.140D-03 0.563D-01 0.830D-01 0.203D+00
 Coeff-Com:  0.363D+00 0.312D+00
 Coeff-En:   0.000D+00 0.000D+00 0.000D+00 0.000D+00 0.000D+00 0.000D+00
 Coeff-En:   0.230D+00 0.770D+00
 Coeff:      0.522D-01-0.697D-01-0.139D-03 0.560D-01 0.826D-01 0.202D+00
 Coeff:      0.362D+00 0.315D+00
 Gap=     0.113 Goal=   None    Shift=    0.000
 RMSDP=5.02D-05 MaxDP=2.72D-03 DE=-7.72D-04 OVMax= 8.27D-03

 Cycle   9  Pass 1  IDiag  1:
 RMSU=  2.11D-05    CP:  1.00D+00  1.12D+00  1.50D-01  7.49D-01  5.55D-01
                    CP:  5.98D-01  6.81D-01  4.68D-01
 E= -7517.80807462504     Delta-E=       -0.000384124411 Rises=F Damp=F
 DIIS: error= 1.30D-04 at cycle   9 NSaved=   9.
 NSaved= 9 IEnMin= 9 EnMin= -7517.80807462504     IErMin= 9 ErrMin= 1.30D-04
 ErrMax= 1.30D-04  0.00D+00 EMaxC= 1.00D-01 BMatC= 2.30D-05 BMatP= 2.91D-04
 IDIUse=3 WtCom= 9.99D-01 WtEn= 1.30D-03
 Coeff-Com:  0.104D-01-0.141D-01-0.240D-03 0.545D-02-0.111D-01 0.158D-01
 Coeff-Com:  0.805D-01 0.199D+00 0.714D+00
 Coeff-En:   0.000D+00 0.000D+00 0.000D+00 0.000D+00 0.000D+00 0.000D+00
 Coeff-En:   0.000D+00 0.000D+00 0.100D+01
 Coeff:      0.104D-01-0.141D-01-0.240D-03 0.544D-02-0.111D-01 0.158D-01
 Coeff:      0.804D-01 0.199D+00 0.715D+00
 Gap=     0.113 Goal=   None    Shift=    0.000
 RMSDP=1.89D-05 MaxDP=1.01D-03 DE=-3.84D-04 OVMax= 2.66D-03

 Cycle  10  Pass 1  IDiag  1:
 RMSU=  1.39D-05    CP:  1.00D+00  1.11D+00  1.51D-01  7.47D-01  5.44D-01
                    CP:  6.11D-01  6.64D-01  5.66D-01  7.73D-01
 E= -7517.80808999542     Delta-E=       -0.000015370384 Rises=F Damp=F
 DIIS: error= 9.30D-05 at cycle  10 NSaved=  10.
 NSaved=10 IEnMin=10 EnMin= -7517.80808999542     IErMin=10 ErrMin= 9.30D-05
 ErrMax= 9.30D-05  0.00D+00 EMaxC= 1.00D-01 BMatC= 1.12D-05 BMatP= 2.30D-05
 IDIUse=1 WtCom= 1.00D+00 WtEn= 0.00D+00
 Coeff-Com:  0.282D-02-0.388D-02 0.161D-05-0.132D-02-0.164D-01-0.111D-01
 Coeff-Com:  0.168D-01 0.113D+00 0.557D+00 0.343D+00
 Coeff:      0.282D-02-0.388D-02 0.161D-05-0.132D-02-0.164D-01-0.111D-01
 Coeff:      0.168D-01 0.113D+00 0.557D+00 0.343D+00
 Gap=     0.113 Goal=   None    Shift=    0.000
 RMSDP=1.10D-05 MaxDP=5.53D-04 DE=-1.54D-05 OVMax= 1.40D-03

 Cycle  11  Pass 1  IDiag  1:
 RMSU=  5.87D-06    CP:  1.00D+00  1.11D+00  1.51D-01  7.47D-01  5.45D-01
                    CP:  6.10D-01  6.66D-01  5.71D-01  9.30D-01  3.84D-01
 E= -7517.80810316122     Delta-E=       -0.000013165794 Rises=F Damp=F
 DIIS: error= 2.86D-05 at cycle  11 NSaved=  11.
 NSaved=11 IEnMin=11 EnMin= -7517.80810316122     IErMin=11 ErrMin= 2.86D-05
 ErrMax= 2.86D-05  0.00D+00 EMaxC= 1.00D-01 BMatC= 1.62D-06 BMatP= 1.12D-05
 IDIUse=1 WtCom= 1.00D+00 WtEn= 0.00D+00
 Coeff-Com:  0.855D-03-0.117D-02 0.152D-03-0.110D-02-0.844D-02-0.985D-02
 Coeff-Com: -0.131D-02 0.478D-01 0.272D+00 0.266D+00 0.435D+00
 Coeff:      0.855D-03-0.117D-02 0.152D-03-0.110D-02-0.844D-02-0.985D-02
 Coeff:     -0.131D-02 0.478D-01 0.272D+00 0.266D+00 0.435D+00
 Gap=     0.113 Goal=   None    Shift=    0.000
 RMSDP=4.29D-06 MaxDP=2.42D-04 DE=-1.32D-05 OVMax= 5.98D-04

 Cycle  12  Pass 1  IDiag  1:
 RMSU=  2.43D-06    CP:  1.00D+00  1.11D+00  1.51D-01  7.46D-01  5.46D-01
                    CP:  6.08D-01  6.69D-01  5.74D-01  9.18D-01  4.86D-01
                    CP:  4.87D-01
 E= -7517.80810512322     Delta-E=       -0.000001961998 Rises=F Damp=F
 DIIS: error= 1.04D-05 at cycle  12 NSaved=  12.
 NSaved=12 IEnMin=12 EnMin= -7517.80810512322     IErMin=12 ErrMin= 1.04D-05
 ErrMax= 1.04D-05  0.00D+00 EMaxC= 1.00D-01 BMatC= 1.74D-07 BMatP= 1.62D-06
 IDIUse=1 WtCom= 1.00D+00 WtEn= 0.00D+00
 Coeff-Com:  0.249D-03-0.339D-03 0.381D-04-0.424D-03-0.332D-02-0.516D-02
 Coeff-Com: -0.370D-02 0.133D-01 0.820D-01 0.113D+00 0.284D+00 0.521D+00
 Coeff:      0.249D-03-0.339D-03 0.381D-04-0.424D-03-0.332D-02-0.516D-02
 Coeff:     -0.370D-02 0.133D-01 0.820D-01 0.113D+00 0.284D+00 0.521D+00
 Gap=     0.113 Goal=   None    Shift=    0.000
 RMSDP=1.32D-06 MaxDP=6.14D-05 DE=-1.96D-06 OVMax= 1.54D-04

 Cycle  13  Pass 1  IDiag  1:
 RMSU=  7.18D-07    CP:  1.00D+00  1.11D+00  1.51D-01  7.46D-01  5.46D-01
                    CP:  6.07D-01  6.68D-01  5.77D-01  9.24D-01  4.87D-01
                    CP:  6.16D-01  7.08D-01
 E= -7517.80810533507     Delta-E=       -0.000000211850 Rises=F Damp=F
 DIIS: error= 2.47D-06 at cycle  13 NSaved=  13.
 NSaved=13 IEnMin=13 EnMin= -7517.80810533507     IErMin=13 ErrMin= 2.47D-06
 ErrMax= 2.47D-06  0.00D+00 EMaxC= 1.00D-01 BMatC= 1.67D-08 BMatP= 1.74D-07
 IDIUse=1 WtCom= 1.00D+00 WtEn= 0.00D+00
 Coeff-Com:  0.635D-04-0.747D-04 0.707D-05 0.644D-04-0.212D-03-0.645D-03
 Coeff-Com: -0.165D-02-0.183D-02-0.573D-02 0.166D-01 0.734D-01 0.265D+00
 Coeff-Com:  0.655D+00
 Coeff:      0.635D-04-0.747D-04 0.707D-05 0.644D-04-0.212D-03-0.645D-03
 Coeff:     -0.165D-02-0.183D-02-0.573D-02 0.166D-01 0.734D-01 0.265D+00
 Coeff:      0.655D+00
 Gap=     0.113 Goal=   None    Shift=    0.000
 RMSDP=3.90D-07 MaxDP=2.37D-05 DE=-2.12D-07 OVMax= 5.53D-05

 Cycle  14  Pass 1  IDiag  1:
 RMSU=  2.23D-07    CP:  1.00D+00  1.11D+00  1.51D-01  7.46D-01  5.45D-01
                    CP:  6.07D-01  6.69D-01  5.76D-01  9.24D-01  4.97D-01
                    CP:  6.21D-01  7.80D-01  8.87D-01
 E= -7517.80810535436     Delta-E=       -0.000000019296 Rises=F Damp=F
 DIIS: error= 7.14D-07 at cycle  14 NSaved=  14.
 NSaved=14 IEnMin=14 EnMin= -7517.80810535436     IErMin=14 ErrMin= 7.14D-07
 ErrMax= 7.14D-07  0.00D+00 EMaxC= 1.00D-01 BMatC= 6.14D-10 BMatP= 1.67D-08
 IDIUse=1 WtCom= 1.00D+00 WtEn= 0.00D+00
 Coeff-Com: -0.110D-04 0.191D-04-0.246D-05 0.206D-04 0.730D-04 0.104D-03
 Coeff-Com: -0.561D-03-0.119D-02-0.640D-02-0.334D-02 0.147D-02 0.462D-01
 Coeff-Com:  0.196D+00 0.768D+00
 Coeff:     -0.110D-04 0.191D-04-0.246D-05 0.206D-04 0.730D-04 0.104D-03
 Coeff:     -0.561D-03-0.119D-02-0.640D-02-0.334D-02 0.147D-02 0.462D-01
 Coeff:      0.196D+00 0.768D+00
 Gap=     0.113 Goal=   None    Shift=    0.000
 RMSDP=1.15D-07 MaxDP=4.68D-06 DE=-1.93D-08 OVMax= 1.85D-05

 Cycle  15  Pass 1  IDiag  1:
 RMSU=  6.27D-08    CP:  1.00D+00  1.11D+00  1.51D-01  7.46D-01  5.45D-01
                    CP:  6.08D-01  6.69D-01  5.77D-01  9.26D-01  4.98D-01
                    CP:  6.26D-01  7.97D-01  9.28D-01  1.03D+00
 E= -7517.80810535510     Delta-E=       -0.000000000739 Rises=F Damp=F
 DIIS: error= 2.05D-07 at cycle  15 NSaved=  15.
 NSaved=15 IEnMin=15 EnMin= -7517.80810535510     IErMin=15 ErrMin= 2.05D-07
 ErrMax= 2.05D-07  0.00D+00 EMaxC= 1.00D-01 BMatC= 1.17D-10 BMatP= 6.14D-10
 IDIUse=1 WtCom= 1.00D+00 WtEn= 0.00D+00
 Coeff-Com: -0.121D-04 0.177D-04-0.781D-06 0.111D-04 0.954D-04 0.154D-03
 Coeff-Com: -0.913D-04-0.386D-03-0.299D-02-0.309D-02-0.640D-02-0.264D-02
 Coeff-Com:  0.326D-01 0.362D+00 0.621D+00
 Coeff:     -0.121D-04 0.177D-04-0.781D-06 0.111D-04 0.954D-04 0.154D-03
 Coeff:     -0.913D-04-0.386D-03-0.299D-02-0.309D-02-0.640D-02-0.264D-02
 Coeff:      0.326D-01 0.362D+00 0.621D+00
 Gap=     0.113 Goal=   None    Shift=    0.000
 RMSDP=4.03D-08 MaxDP=2.22D-06 DE=-7.39D-10 OVMax= 4.61D-06

 Cycle  16  Pass 1  IDiag  1:
 RMSU=  2.74D-08    CP:  1.00D+00  1.11D+00  1.51D-01  7.46D-01  5.45D-01
                    CP:  6.08D-01  6.69D-01  5.77D-01  9.26D-01  4.98D-01
                    CP:  6.27D-01  8.04D-01  9.48D-01  1.07D+00  8.64D-01
 E= -7517.80810535518     Delta-E=       -0.000000000076 Rises=F Damp=F
 DIIS: error= 1.71D-07 at cycle  16 NSaved=  16.
 NSaved=16 IEnMin=16 EnMin= -7517.80810535518     IErMin=16 ErrMin= 1.71D-07
 ErrMax= 1.71D-07  0.00D+00 EMaxC= 1.00D-01 BMatC= 3.14D-11 BMatP= 1.17D-10
 IDIUse=1 WtCom= 1.00D+00 WtEn= 0.00D+00
 Coeff-Com: -0.403D-05 0.552D-05-0.895D-06 0.702D-05 0.534D-04 0.868D-04
 Coeff-Com:  0.308D-04-0.621D-04-0.976D-03-0.121D-02-0.372D-02-0.678D-02
 Coeff-Com: -0.141D-02 0.120D+00 0.357D+00 0.537D+00
 Coeff:     -0.403D-05 0.552D-05-0.895D-06 0.702D-05 0.534D-04 0.868D-04
 Coeff:      0.308D-04-0.621D-04-0.976D-03-0.121D-02-0.372D-02-0.678D-02
 Coeff:     -0.141D-02 0.120D+00 0.357D+00 0.537D+00
 Gap=     0.113 Goal=   None    Shift=    0.000
 RMSDP=1.79D-08 MaxDP=9.66D-07 DE=-7.64D-11 OVMax= 2.27D-06

 Cycle  17  Pass 1  IDiag  1:
 RMSU=  8.32D-09    CP:  1.00D+00  1.11D+00  1.51D-01  7.46D-01  5.45D-01
                    CP:  6.08D-01  6.69D-01  5.77D-01  9.26D-01  4.98D-01
                    CP:  6.27D-01  8.04D-01  9.53D-01  1.09D+00  9.78D-01
                    CP:  7.74D-01
 E= -7517.80810535500     Delta-E=        0.000000000182 Rises=F Damp=F
 DIIS: error= 2.87D-08 at cycle  17 NSaved=  17.
 NSaved=17 IEnMin=16 EnMin= -7517.80810535518     IErMin=17 ErrMin= 2.87D-08
 ErrMax= 2.87D-08  0.00D+00 EMaxC= 1.00D-01 BMatC= 2.19D-12 BMatP= 3.14D-11
 IDIUse=1 WtCom= 1.00D+00 WtEn= 0.00D+00
 Coeff-Com: -0.935D-06 0.110D-05-0.452D-07 0.149D-05 0.134D-04 0.210D-04
 Coeff-Com:  0.345D-04 0.490D-04 0.133D-04-0.677D-04-0.754D-03-0.311D-02
 Coeff-Com: -0.732D-02-0.438D-02 0.805D-01 0.256D+00 0.679D+00
 Coeff:     -0.935D-06 0.110D-05-0.452D-07 0.149D-05 0.134D-04 0.210D-04
 Coeff:      0.345D-04 0.490D-04 0.133D-04-0.677D-04-0.754D-03-0.311D-02
 Coeff:     -0.732D-02-0.438D-02 0.805D-01 0.256D+00 0.679D+00
 Gap=     0.113 Goal=   None    Shift=    0.000
 RMSDP=6.27D-09 MaxDP=2.76D-07 DE= 1.82D-10 OVMax= 1.16D-06

 SCF Done:  E(RPBE1PBE) =  -7517.80810535     A.U. after   17 cycles
            NFock= 17  Conv=0.63D-08     -V/T= 2.1285
 KE= 6.661979582442D+03 PE=-2.467455710161D+04 EE= 6.953130685999D+03
 Leave Link  502 at Tue Mar  6 15:57:18 2018, MaxMem=   536870912 cpu:      3037.2
 (Enter /share/apps//mg09/l601.exe)
 Copying SCF densities to generalized density rwf, IOpCl= 0 IROHF=0.

 **********************************************************************

            Population analysis using the SCF density.

 **********************************************************************

 Orbital symmetries:
       Occupied  (A) (A) (A) (A) (A) (A) (A) (A) (A) (A) (A) (A)
                 (A) (A) (A) (A) (A) (A) (A) (A) (A) (A) (A) (A)
                 (A) (A) (A) (A) (A) (A) (A) (A) (A) (A) (A) (A)
                 (A) (A) (A) (A) (A) (A) (A) (A) (A) (A) (A) (A)
                 (A) (A) (A) (A) (A) (A) (A) (A) (A) (A) (A) (A)
                 (A) (A) (A) (A) (A) (A) (A) (A) (A) (A) (A) (A)
                 (A) (A) (A) (A) (A) (A) (A) (A) (A) (A) (A) (A)
                 (A) (A) (A) (A) (A) (A) (A) (A) (A) (A) (A) (A)
                 (A) (A) (A) (A) (A) (A) (A) (A) (A) (A) (A) (A)
                 (A) (A) (A) (A) (A) (A) (A) (A)
       Virtual   (A) (A) (A) (A) (A) (A) (A) (A) (A) (A) (A) (A)
                 (A) (A) (A) (A) (A) (A) (A) (A) (A) (A) (A) (A)
                 (A) (A) (A) (A) (A) (A) (A) (A) (A) (A) (A) (A)
                 (A) (A) (A) (A) (A) (A) (A) (A) (A) (A) (A) (A)
                 (A) (A) (A) (A) (A) (A) (A) (A) (A) (A) (A) (A)
                 (A) (A) (A) (A) (A) (A) (A) (A) (A) (A) (A) (A)
                 (A) (A) (A) (A) (A) (A) (A) (A) (A) (A) (A) (A)
                 (A) (A) (A) (A) (A) (A) (A) (A) (A) (A) (A) (A)
                 (A) (A) (A) (A) (A) (A) (A) (A) (A) (A) (A) (A)
                 (A) (A) (A) (A) (A) (A) (A) (A) (A) (A) (A) (A)
                 (A) (A) (A) (A) (A) (A) (A) (A) (A) (A) (A) (A)
                 (A) (A) (A) (A) (A) (A) (A) (A) (A) (A) (A) (A)
                 (A) (A) (A) (A) (A) (A) (A) (A) (A) (A) (A) (A)
                 (A) (A) (A) (A) (A) (A) (A) (A) (A) (A) (A) (A)
                 (A) (A) (A) (A) (A) (A) (A) (A) (A) (A) (A) (A)
                 (A) (A) (A) (A) (A) (A) (A) (A) (A) (A) (A) (A)
                 (A) (A) (A) (A) (A) (A) (A) (A) (A) (A) (A) (A)
                 (A) (A) (A) (A) (A) (A) (A) (A) (A) (A) (A) (A)
                 (A) (A) (A) (A) (A) (A) (A) (A) (A) (A) (A) (A)
                 (A) (A) (A) (A) (A) (A) (A) (A) (A) (A) (A) (A)
                 (A) (A) (A) (A) (A) (A) (A) (A) (A) (A) (A) (A)
                 (A) (A) (A) (A) (A) (A) (A) (A) (A) (A) (A) (A)
                 (A) (A) (A) (A) (A) (A) (A) (A) (A) (A) (A) (A)
                 (A) (A) (A) (A) (A) (A) (A) (A) (A) (A) (A) (A)
                 (A) (A) (A) (A) (A) (A) (A) (A) (A) (A) (A) (A)
                 (A) (A) (A) (A) (A) (A) (A) (A) (A) (A) (A) (A)
                 (A) (A) (A) (A) (A) (A) (A) (A) (A) (A) (A) (A)
                 (A) (A) (A) (A)
 The electronic state is 1-A.
 Alpha  occ. eigenvalues -- -399.09737-399.09674-399.09047 -49.91337 -49.91226
 Alpha  occ. eigenvalues --  -49.90659 -44.39400 -44.39387 -44.39377 -44.39332
 Alpha  occ. eigenvalues --  -44.39269 -44.39249 -44.38744 -44.38711 -44.38677
 Alpha  occ. eigenvalues --   -6.27840  -6.27721  -6.27173  -6.02150  -6.02059
 Alpha  occ. eigenvalues --   -6.01991  -6.01894  -5.13450  -5.13155  -4.43239
 Alpha  occ. eigenvalues --   -4.43234  -4.43184  -4.43152  -4.43036  -4.42949
 Alpha  occ. eigenvalues --   -4.42645  -4.42529  -4.42416  -3.74360  -3.74333
 Alpha  occ. eigenvalues --   -3.74287  -3.74233  -3.74207  -3.74178  -3.74176
 Alpha  occ. eigenvalues --   -3.74138  -3.74082  -3.74060  -3.74002  -3.73903
 Alpha  occ. eigenvalues --   -3.46737  -3.46549  -3.46413  -3.46409  -3.46283
 Alpha  occ. eigenvalues --   -3.46117  -1.22698  -1.22672  -1.22671  -1.22658
 Alpha  occ. eigenvalues --   -1.22623  -1.22606  -1.22583  -1.22532  -1.22423
 Alpha  occ. eigenvalues --   -1.22371  -1.22098  -1.22073  -1.21965  -1.21872
 Alpha  occ. eigenvalues --   -1.21853  -1.08671  -1.08475  -1.08233  -1.08093
 Alpha  occ. eigenvalues --   -1.08044  -1.07887  -1.07875  -1.07851  -1.07772
 Alpha  occ. eigenvalues --   -1.07737  -1.07727  -1.07674  -1.07607  -1.07597
 Alpha  occ. eigenvalues --   -1.07574  -1.07543  -1.07520  -1.07411  -1.07377
 Alpha  occ. eigenvalues --   -1.07211  -1.03016  -1.02903  -1.02782  -1.02753
 Alpha  occ. eigenvalues --   -1.02649  -1.02579  -1.02548  -1.02378  -1.02276
 Alpha  occ. eigenvalues --   -1.02188  -0.67022  -0.62595  -0.59310  -0.55032
 Alpha  occ. eigenvalues --   -0.53517  -0.45294  -0.44771  -0.43189  -0.39905
 Alpha  occ. eigenvalues --   -0.29095  -0.27980  -0.25954  -0.25815  -0.25445
 Alpha  occ. eigenvalues --   -0.24566  -0.23891  -0.22091  -0.21842  -0.20631
 Alpha  occ. eigenvalues --   -0.20160
 Alpha virt. eigenvalues --   -0.08908  -0.07108  -0.06763  -0.06292  -0.06029
 Alpha virt. eigenvalues --   -0.05915  -0.05393  -0.05051  -0.03759  -0.03623
 Alpha virt. eigenvalues --   -0.02977  -0.02258  -0.01912   0.03839   0.04979
 Alpha virt. eigenvalues --    0.05194   0.06346   0.08054   0.08402   0.08991
 Alpha virt. eigenvalues --    0.09212   0.09521   0.09977   0.10317   0.10653
 Alpha virt. eigenvalues --    0.10888   0.11380   0.11888   0.11918   0.12737
 Alpha virt. eigenvalues --    0.14531   0.15414   0.16188   0.16344   0.16806
 Alpha virt. eigenvalues --    0.18001   0.18388   0.18972   0.20450   0.20796
 Alpha virt. eigenvalues --    0.21518   0.21805   0.22313   0.23379   0.24076
 Alpha virt. eigenvalues --    0.24411   0.25897   0.26150   0.28527   0.29544
 Alpha virt. eigenvalues --    0.29711   0.29913   0.30355   0.30583   0.30870
 Alpha virt. eigenvalues --    0.31642   0.32085   0.32329   0.33403   0.34088
 Alpha virt. eigenvalues --    0.34436   0.34621   0.35089   0.36282   0.37886
 Alpha virt. eigenvalues --    0.38463   0.40223   0.41076   0.41734   0.42250
 Alpha virt. eigenvalues --    0.42564   0.42720   0.43207   0.43913   0.44599
 Alpha virt. eigenvalues --    0.45437   0.46057   0.46897   0.47116   0.47615
 Alpha virt. eigenvalues --    0.48330   0.49210   0.50351   0.51115   0.51728
 Alpha virt. eigenvalues --    0.52570   0.52672   0.54157   0.54645   0.55106
 Alpha virt. eigenvalues --    0.55509   0.56040   0.58318   0.58647   0.58998
 Alpha virt. eigenvalues --    0.59811   0.61184   0.61499   0.62467   0.62589
 Alpha virt. eigenvalues --    0.63499   0.64178   0.64886   0.65496   0.65881
 Alpha virt. eigenvalues --    0.66491   0.67893   0.67947   0.69174   0.69563
 Alpha virt. eigenvalues --    0.70266   0.70981   0.71429   0.72598   0.73048
 Alpha virt. eigenvalues --    0.74111   0.74993   0.76048   0.77671   0.78078
 Alpha virt. eigenvalues --    0.80030   0.80492   0.81378   0.82264   0.82335
 Alpha virt. eigenvalues --    0.82897   0.83690   0.84451   0.85011   0.86666
 Alpha virt. eigenvalues --    0.86981   0.88005   0.88497   0.89575   0.90083
 Alpha virt. eigenvalues --    0.91235   0.91365   0.92145   0.92639   0.93708
 Alpha virt. eigenvalues --    0.94608   0.95102   0.95494   0.96883   0.98035
 Alpha virt. eigenvalues --    0.98127   0.99149   1.00154   1.00680   1.01314
 Alpha virt. eigenvalues --    1.01990   1.03192   1.03505   1.06960   1.07211
 Alpha virt. eigenvalues --    1.08513   1.09818   1.10521   1.12140   1.12829
 Alpha virt. eigenvalues --    1.13918   1.15470   1.15887   1.16159   1.17323
 Alpha virt. eigenvalues --    1.17457   1.18304   1.18490   1.19354   1.19991
 Alpha virt. eigenvalues --    1.20210   1.21177   1.21358   1.21553   1.22417
 Alpha virt. eigenvalues --    1.22729   1.22971   1.23495   1.23747   1.24105
 Alpha virt. eigenvalues --    1.24673   1.25213   1.25492   1.25997   1.26552
 Alpha virt. eigenvalues --    1.26897   1.27768   1.28044   1.28939   1.29752
 Alpha virt. eigenvalues --    1.30864   1.31318   1.31705   1.33353   1.33775
 Alpha virt. eigenvalues --    1.34750   1.36603   1.37029   1.39384   1.40401
 Alpha virt. eigenvalues --    1.41053   1.41722   1.41791   1.43099   1.43511
 Alpha virt. eigenvalues --    1.45216   1.46394   1.46905   1.47654   1.48164
 Alpha virt. eigenvalues --    1.49678   1.50125   1.50574   1.51412   1.52569
 Alpha virt. eigenvalues --    1.53384   1.54514   1.54749   1.57846   1.59925
 Alpha virt. eigenvalues --    1.63583   1.64377   1.74339   2.04841   2.07020
 Alpha virt. eigenvalues --    2.09798   2.12985   2.13121   2.13745   2.15431
 Alpha virt. eigenvalues --    2.16619   2.17325   2.19828   2.20604   2.22221
 Alpha virt. eigenvalues --    2.22900   2.23612   2.25169   2.25896   2.26307
 Alpha virt. eigenvalues --    2.27041   2.28604   2.29229   2.30455   2.31728
 Alpha virt. eigenvalues --    2.32794   2.33936   2.34827   2.37124   2.38556
 Alpha virt. eigenvalues --    2.40818   2.41671   2.42301   2.44036   2.45927
 Alpha virt. eigenvalues --    2.47002   2.48682   2.50410   2.54861   2.55250
 Alpha virt. eigenvalues --    2.56282   2.59186   2.60961   2.64113   2.67888
 Alpha virt. eigenvalues --    2.69386   2.70313   2.71468   2.74235   2.75248
 Alpha virt. eigenvalues --    2.77805   2.78018   2.78879   2.79945   2.81356
 Alpha virt. eigenvalues --    2.82334   2.85638   2.87091   2.88477   2.95375
 Alpha virt. eigenvalues --    3.21932   3.23648   3.30083   3.33367   3.39143
 Alpha virt. eigenvalues --    3.48115   3.94702   3.97326   3.98175   3.99862
 Alpha virt. eigenvalues --    4.01167   4.02552   4.04975   4.08410   4.13994
 Alpha virt. eigenvalues --    5.30555   5.31108   5.37080  35.34625  35.36769
 Alpha virt. eigenvalues --   35.41546  35.42516  35.44373  35.47525  35.48850
 Alpha virt. eigenvalues --   35.52991  35.54472  35.56494  35.57032  35.65572
 Alpha virt. eigenvalues --   35.84135  35.90449  35.99716  36.16876  36.19397
 Alpha virt. eigenvalues --   36.22101  36.95177  36.97421  37.00159  37.06313
 Alpha virt. eigenvalues --   37.08357  37.17611 113.57817 113.59146 120.21133
 Alpha virt. eigenvalues --  120.22895 120.24432 120.26801
          Condensed to atoms (all electrons):
               1          2          3          4          5          6
     1  Bi  22.308995  -0.027211   0.205108   0.004204   0.115740  -0.035946
     2  Ge  -0.027211  31.545566  -0.024459   0.114132   0.087114   0.100038
     3  Bi   0.205108  -0.024459  22.337307  -0.036159   0.102287   0.023765
     4  Bi   0.004204   0.114132  -0.036159  22.280785  -0.022907   0.202583
     5  Sn   0.115740   0.087114   0.102287  -0.022907  21.356390  -0.022119
     6  Bi  -0.035946   0.100038   0.023765   0.202583  -0.022119  22.305879
     7  Sn  -0.016891   0.158991   0.165140  -0.017218   0.146970   0.175626
     8  Ge   0.169231   0.151935  -0.016488   0.183685   0.154596  -0.017998
     9  Ge   0.156774  -0.014362   0.155929   0.148558  -0.012676   0.149878
               7          8          9
     1  Bi  -0.016891   0.169231   0.156774
     2  Ge   0.158991   0.151935  -0.014362
     3  Bi   0.165140  -0.016488   0.155929
     4  Bi  -0.017218   0.183685   0.148558
     5  Sn   0.146970   0.154596  -0.012676
     6  Bi   0.175626  -0.017998   0.149878
     7  Sn  21.463757  -0.014080  -0.012020
     8  Ge  -0.014080  31.605606  -0.013584
     9  Ge  -0.012020  -0.013584  31.659386
 Mulliken charges:
               1
     1  Bi   0.119995
     2  Ge  -0.091745
     3  Bi   0.087570
     4  Bi   0.142338
     5  Sn   0.094606
     6  Bi   0.118296
     7  Sn  -0.050275
     8  Ge  -0.202901
     9  Ge  -0.217884
 Sum of Mulliken charges =   0.00000
 Mulliken charges with hydrogens summed into heavy atoms:
               1
     1  Bi   0.119995
     2  Ge  -0.091745
     3  Bi   0.087570
     4  Bi   0.142338
     5  Sn   0.094606
     6  Bi   0.118296
     7  Sn  -0.050275
     8  Ge  -0.202901
     9  Ge  -0.217884
 Electronic spatial extent (au):  <R**2>=           5967.1329
 Charge=              0.0000 electrons
 Dipole moment (field-independent basis, Debye):
    X=             -0.1291    Y=              0.3055    Z=             -0.9757  Tot=              1.0306
 Quadrupole moment (field-independent basis, Debye-Ang):
   XX=           -216.6149   YY=           -215.3955   ZZ=           -222.8515
   XY=             -0.7174   XZ=             -1.1601   YZ=              0.2682
 Traceless Quadrupole moment (field-independent basis, Debye-Ang):
   XX=              1.6724   YY=              2.8918   ZZ=             -4.5642
   XY=             -0.7174   XZ=             -1.1601   YZ=              0.2682
 Octapole moment (field-independent basis, Debye-Ang**2):
  XXX=             22.0080  YYY=            -22.3636  ZZZ=            -93.2200  XYY=              7.7905
  XXY=             -7.1796  XXZ=            -37.5716  XZZ=             -0.5928  YZZ=              1.7694
  YYZ=            -41.9428  XYZ=             -1.3133
 Hexadecapole moment (field-independent basis, Debye-Ang**3):
 XXXX=          -3334.9458 YYYY=          -3394.3191 ZZZZ=          -2934.9240 XXXY=              2.3978
 XXXZ=             48.0581 YYYX=             35.7769 YYYZ=            -21.6565 ZZZX=             44.8068
 ZZZY=            -28.1225 XXYY=          -1076.9145 XXZZ=          -1042.6337 YYZZ=          -1058.9523
 XXYZ=            -20.6932 YYXZ=             20.1601 ZZXY=              3.6588
 N-N= 3.541638727816D+03 E-N=-2.467455707578D+04  KE= 6.661979582442D+03
 No NMR shielding tensors so no spin-rotation constants.
 Leave Link  601 at Tue Mar  6 15:57:19 2018, MaxMem=   536870912 cpu:         1.1
 (Enter /share/apps//mg09/l701.exe)
 Compute integral first derivatives.
 ... and contract with generalized density number  0.
   1 Symmetry operations used in ECPInt.
 ECPInt:  NShTT=   10440 NPrTT=   41973 LenC2=    9658 LenP2D=   27491.
 LDataN:  DoStor=T MaxTD1= 9 Len=  602
 Leave Link  701 at Tue Mar  6 15:57:36 2018, MaxMem=   536870912 cpu:        68.6
 (Enter /share/apps//mg09/l702.exe)
 L702 exits ... SP integral derivatives will be done elsewhere.
 Leave Link  702 at Tue Mar  6 15:57:36 2018, MaxMem=   536870912 cpu:         0.1
 (Enter /share/apps//mg09/l703.exe)
 Compute integral first derivatives, UseDBF=F ICtDFT=           0.
 Integral derivatives from FoFJK, PRISM(SPDF).
 Calling FoFJK, ICntrl=      2127 FMM=F ISym2X=0 I1Cent= 0 IOpClX= 0 NMat=1 NMatS=1 NMatT=0.
 FoFJK:  IHMeth= 1 ICntrl=    2127 DoSepK=F KAlg= 0 I1Cent=   0 FoldK=F
 IRaf=         0 NMat=   1 IRICut=       1 DoRegI=T DoRafI=F ISym2E= 0.
 FoFCou: FMM=F IPFlag=           0 FMFlag=      100000 FMFlg1=         800
         NFxFlg=           0 DoJE=F BraDBF=F KetDBF=F FulRan=T
         wScrn=  0.000000 ICntrl=    2127 IOpCl=  0 I1Cent=           0 NGrid=           0
         NMat0=    1 NMatS0=      1 NMatT0=    0 NMatD0=    1 NMtDS0=    0 NMtDT0=    0
 Symmetry not used in FoFCou.
 Defaulting to unpruned grid for atomic number  83.
 Defaulting to unpruned grid for atomic number  83.
 Defaulting to unpruned grid for atomic number  83.
 Defaulting to unpruned grid for atomic number  83.
 Leave Link  703 at Tue Mar  6 16:00:22 2018, MaxMem=   536870912 cpu:       663.0
 (Enter /share/apps//mg09/l716.exe)
 Dipole        =-5.07762173D-02 1.20188160D-01-3.83884927D-01
 ***** Axes restored to original set *****
 -------------------------------------------------------------------
 Center     Atomic                   Forces (Hartrees/Bohr)
 Number     Number              X              Y              Z
 -------------------------------------------------------------------
      1       83           0.005513055    0.006826400    0.003049395
      2       32          -0.010571828   -0.004735187   -0.009638721
      3       83           0.006028147   -0.004099909    0.004381718
      4       83          -0.008246570    0.005280838    0.001868251
      5       50           0.013496585   -0.000818017   -0.006046632
      6       83          -0.006345187   -0.005849391    0.003076151
      7       50           0.002228887   -0.012260014   -0.000777617
      8       32           0.000231777    0.013304575   -0.006640332
      9       32          -0.002334865    0.002350705    0.010727787
 -------------------------------------------------------------------
 Cartesian Forces:  Max     0.013496585 RMS     0.006916284
 Force constants in Cartesian coordinates: 
                1             2             3             4             5 
      1  0.162093D+00
      2  0.428067D-01  0.190702D+00
      3  0.168211D-01  0.984893D-02  0.167828D+00
      4  0.179633D-02 -0.763159D-02 -0.446363D-02  0.166314D+00
      5 -0.372040D-02  0.137838D-02 -0.203472D-02  0.688267D-02  0.171174D+00
      6 -0.774377D-02 -0.906641D-02 -0.400681D-03  0.338769D-01  0.164253D-01
      7 -0.279627D-01 -0.171233D-01 -0.637334D-02  0.126548D-03 -0.361723D-03
      8  0.194161D-01 -0.649781D-01  0.192963D-01  0.425747D-02  0.502930D-02
      9 -0.126550D-01 -0.408210D-02 -0.284050D-01 -0.703725D-02 -0.175516D-02
     10 -0.309570D-01  0.130241D-01  0.164387D-02 -0.329858D-01  0.181118D-02
     11 -0.142218D-01 -0.203902D-01 -0.654792D-02  0.234347D-01 -0.384958D-01
     12 -0.798757D-02 -0.331758D-02 -0.696786D-02  0.189498D-01 -0.276932D-01
     13 -0.268899D-01 -0.164599D-01 -0.580199D-02 -0.445713D-01  0.987283D-03
     14  0.966360D-02 -0.343676D-01 -0.245985D-01 -0.791027D-02 -0.157859D-01
     15  0.219841D-01 -0.802080D-02 -0.370180D-01 -0.190657D-01 -0.485878D-02
     16  0.210407D-03 -0.953924D-02 -0.190740D-02 -0.271532D-01 -0.627378D-02
     17 -0.733715D-02 -0.292530D-02 -0.252740D-02 -0.127840D-01 -0.271949D-01
     18  0.330080D-02  0.295514D-02  0.591594D-02  0.189862D-01  0.210481D-01
     19  0.323844D-02  0.183592D-02  0.577250D-03 -0.338656D-01  0.242031D-01
     20 -0.542746D-02 -0.400752D-02 -0.433380D-02  0.407418D-03 -0.432153D-01
     21 -0.187055D-02 -0.370598D-02  0.636199D-02 -0.193592D-01  0.224086D-01
     22 -0.367337D-01  0.667022D-02 -0.311460D-01 -0.338165D-01 -0.238240D-01
     23 -0.145753D-01 -0.310971D-01 -0.131492D-01 -0.490107D-02 -0.588710D-01
     24 -0.153705D-01  0.213961D-01 -0.607816D-01 -0.156689D-01 -0.202073D-01
     25 -0.447950D-01 -0.135828D-01  0.306502D-01  0.415597D-02  0.295662D-03
     26 -0.266042D-01 -0.343142D-01  0.240463D-01 -0.175534D-02  0.598163D-02
     27  0.352145D-02 -0.600727D-02 -0.465332D-01 -0.621830D-02 -0.333270D-02
                6             7             8             9            10 
      6  0.210549D+00
      7 -0.957957D-02  0.168427D+00
      8  0.416434D-02 -0.348644D-01  0.162380D+00
      9 -0.369742D-02  0.311287D-01 -0.106519D-01  0.162687D+00
     10 -0.137497D-01 -0.298477D-02  0.744757D-02 -0.661067D-02  0.204670D+00
     11 -0.115034D-01  0.801127D-02  0.156541D-02  0.466732D-02 -0.446834D-01
     12 -0.480994D-01 -0.663625D-04  0.319746D-03  0.462947D-02 -0.176779D-01
     13  0.157117D-01 -0.276725D-01  0.105853D-01 -0.149137D-01 -0.470832D-02
     14 -0.155640D-02 -0.102999D-02 -0.188924D-01  0.147822D-01  0.287719D-02
     15 -0.301708D-01  0.211779D-01  0.393359D-02 -0.445146D-01  0.857320D-02
     16 -0.130412D-01 -0.313544D-01 -0.142794D-01  0.551678D-02 -0.349575D-01
     17 -0.222695D-02  0.743006D-02 -0.159218D-01  0.102823D-01 -0.164189D-01
     18 -0.555902D-01 -0.129754D-01  0.414950D-02 -0.143745D-01  0.106729D-01
     19 -0.766512D-02 -0.288453D-01 -0.157139D-01 -0.211528D-01  0.147628D-02
     20 -0.102154D-01  0.971081D-02 -0.352366D-01  0.218765D-02  0.794717D-02
     21 -0.332858D-01 -0.916332D-02 -0.283015D-01 -0.405466D-01  0.159918D-02
     22 -0.987010D-03  0.228404D-02 -0.729587D-03  0.225017D-04 -0.574825D-01
     23  0.163728D-01  0.555936D-02  0.133058D-02  0.691237D-02  0.130246D-01
     24 -0.337832D-01 -0.564489D-02  0.535199D-02  0.139416D-02  0.146270D-01
     25  0.317787D-02 -0.520176D-01  0.238811D-01  0.257014D-01 -0.420701D-01
     26 -0.239383D-02  0.226680D-01 -0.352767D-01 -0.223426D-01  0.149705D-01
     27 -0.552207D-02 -0.850377D-02  0.173789D-02 -0.371723D-01  0.922057D-03
               11            12            13            14            15 
     11  0.176489D+00
     12 -0.647417D-02  0.167930D+00
     13  0.765275D-02  0.369027D-02  0.181708D+00
     14  0.529304D-02  0.386846D-03 -0.692830D-02  0.143859D+00
     15 -0.358305D-02  0.390372D-02 -0.452199D-01  0.108353D-02  0.157941D+00
     16  0.265608D-01 -0.344735D-03 -0.292799D-02 -0.105242D-02  0.846259D-02
     17 -0.657591D-01  0.156176D-01 -0.663899D-02  0.398164D-02  0.420217D-02
     18  0.607265D-02 -0.232600D-01  0.680723D-02 -0.151332D-03  0.202039D-02
     19  0.868379D-03 -0.107763D-02 -0.322898D-01 -0.283067D-01  0.940237D-02
     20 -0.220382D-02 -0.239448D-02  0.537142D-02 -0.453144D-01 -0.762281D-02
     21 -0.380108D-02  0.769307D-02  0.134031D-01  0.177618D-01 -0.231039D-01
     22 -0.184402D-01  0.385154D-01 -0.441184D-01  0.330392D-01 -0.539119D-02
     23 -0.316565D-01  0.165972D-02  0.386626D-02 -0.451762D-01  0.169203D-01
     24  0.238329D-01 -0.492086D-01  0.174452D-01 -0.651740D-02 -0.262208D-01
     25  0.108175D-01 -0.340013D-01  0.147041D-02 -0.352287D-03  0.766424D-04
     26 -0.248417D-01  0.218956D-01  0.156421D-02  0.640275D-02 -0.205419D-02
     27 -0.266329D-02 -0.566200D-01  0.887805D-02 -0.119069D-02 -0.283747D-02
               16            17            18            19            20 
     16  0.173887D+00
     17  0.362698D-01  0.188780D+00
     18 -0.283403D-01 -0.840608D-02  0.155048D+00
     19 -0.457019D-01  0.239961D-01  0.221694D-01  0.117125D+00
     20 -0.112903D-01 -0.347827D-01  0.389046D-02 -0.106975D-01  0.170809D+00
     21  0.173449D-01 -0.204334D-01 -0.315669D-01 -0.536869D-02  0.198989D-01
     22  0.293879D-02 -0.782782D-03 -0.158950D-02  0.993387D-02  0.156339D-02
     23 -0.690148D-02  0.254484D-04  0.493950D-02  0.205954D-02 -0.523109D-02
     24  0.415443D-02  0.740039D-02  0.339885D-02  0.613931D-03  0.488665D-02
     25 -0.349412D-01 -0.237342D-01 -0.190315D-01  0.892902D-02  0.241497D-02
     26 -0.134940D-01 -0.462037D-01 -0.344979D-01  0.175509D-02 -0.817242D-03
     27  0.815492D-02 -0.390859D-02 -0.415914D-01  0.250124D-02 -0.629720D-02
               21            22            23            24            25 
     21  0.111798D+00
     22  0.134802D-02  0.147654D+00
     23 -0.130399D-02  0.174596D-02  0.168023D+00
     24  0.373712D-02 -0.245168D-02 -0.374924D-01  0.166930D+00
     25  0.206644D-02  0.933999D-02  0.122146D-03  0.229539D-02  0.149928D+00
     26 -0.252337D-02  0.757783D-03  0.265273D-02  0.134911D-02  0.138001D-03
     27 -0.108649D-02  0.167954D-02  0.514095D-02 -0.546628D-02 -0.109352D-01
               26            27 
     26  0.126416D+00
     27  0.165209D-01  0.196829D+00
 Leave Link  716 at Tue Mar  6 16:00:22 2018, MaxMem=   536870912 cpu:         0.1
 (Enter /share/apps//mg09/l103.exe)

 GradGradGradGradGradGradGradGradGradGradGradGradGradGradGradGradGradGrad
 Berny optimization.
 Search for a local minimum.
 Step number   1 out of a maximum of  100
 All quantities printed in internal units (Hartrees-Bohrs-Radians)
 Second derivative matrix not updated -- first step.
 ITU=  0
     Eigenvalues ---    0.11325   0.12212   0.12778   0.13841   0.15159
     Eigenvalues ---    0.15374   0.15968   0.16141   0.16625   0.18603
     Eigenvalues ---    0.18877   0.23398   0.24459   0.25216   0.25850
     Eigenvalues ---    0.26207   0.28689   0.29445   0.30278   0.31828
     Eigenvalues ---    0.32659
 RFO step:  Lambda=-7.59200142D-03 EMin= 1.13250221D-01
 Linear search not attempted -- first point.
 TrRot= -0.001445  0.001476 -0.000498 -0.761788 -0.000158  0.761797
 Variable       Old X    -DE/DX   Delta X   Delta X   Delta X     New X
                                 (Linear)    (Quad)   (Total)
    X1       -2.72563   0.00551   0.00000   0.03656   0.03526  -2.69036
    Y1       -3.58129   0.00683   0.00000   0.04198   0.04331  -3.53798
    Z1       -1.08321   0.00305   0.00000   0.02010   0.01968  -1.06353
    X2        2.24376  -0.01057   0.00000  -0.05291  -0.05483   2.18894
    Y2        0.88829  -0.00474   0.00000  -0.02216  -0.02022   0.86808
    Z2        4.16033  -0.00964   0.00000  -0.05118  -0.05152   4.10881
    X3       -3.22726   0.00603   0.00000   0.04224   0.04104  -3.18621
    Y3        1.90729  -0.00410   0.00000  -0.02384  -0.02265   1.88465
    Z3       -2.35261   0.00438   0.00000   0.03393   0.03287  -2.31974
    X4        3.95720  -0.00825   0.00000  -0.04784  -0.04927   3.90793
    Y4       -2.65489   0.00528   0.00000   0.03035   0.03187  -2.62302
    Z4        0.04418   0.00187   0.00000   0.00570   0.00594   0.05012
    X5       -3.62242   0.01350   0.00000   0.07306   0.07122  -3.55120
    Y5        0.16276  -0.00082   0.00000  -0.00400  -0.00218   0.16058
    Z5        3.50446  -0.00605   0.00000  -0.03908  -0.04000   3.46447
    X6        3.39426  -0.00635   0.00000  -0.04203  -0.04336   3.35090
    Y6        2.79450  -0.00585   0.00000  -0.03645  -0.03508   2.75942
    Z6       -1.23114   0.00308   0.00000   0.01958   0.01916  -1.21197
    X7       -0.81619   0.00223   0.00000   0.01575   0.01403  -0.80216
    Y7        4.97756  -0.01226   0.00000  -0.08723  -0.08554   4.89202
    Z7        1.97805  -0.00078   0.00000  -0.00585  -0.00697   1.97108
    X8        0.09189   0.00023   0.00000   0.00048  -0.00134   0.09055
    Y8       -3.83188   0.01330   0.00000   0.07622   0.07809  -3.75378
    Z8        3.66537  -0.00664   0.00000  -0.03729  -0.03737   3.62800
    X9        0.97214  -0.00233   0.00000  -0.01183  -0.01277   0.95938
    Y9       -1.10834   0.00235   0.00000   0.01138   0.01239  -1.09595
    Z9       -4.40179   0.01073   0.00000   0.05848   0.05822  -4.34358
         Item               Value     Threshold  Converged?
 Maximum Force            0.013497     0.000450     NO 
 RMS     Force            0.006916     0.000300     NO 
 Maximum Displacement     0.085545     0.001800     NO 
 RMS     Displacement     0.040940     0.001200     NO 
 Predicted change in Energy=-3.967944D-03
 Lowest energy point so far.  Saving SCF results.
 GradGradGradGradGradGradGradGradGradGradGradGradGradGradGradGradGradGrad

 Leave Link  103 at Tue Mar  6 16:00:22 2018, MaxMem=   536870912 cpu:         0.1
 (Enter /share/apps//mg09/l202.exe)
                          Input orientation:                          
 ---------------------------------------------------------------------
 Center     Atomic      Atomic             Coordinates (Angstroms)
 Number     Number       Type             X           Y           Z
 ---------------------------------------------------------------------
      1         83           0       -1.423680   -1.872218   -0.562798
      2         32           0        1.158336    0.459366    2.174286
      3         83           0       -1.686071    0.997311   -1.227554
      4         83           0        2.067987   -1.388044    0.026524
      5         50           0       -1.879215    0.084973    1.833316
      6         83           0        1.773219    1.460223   -0.641349
      7         50           0       -0.424484    2.588745    1.043049
      8         32           0        0.047915   -1.986417    1.919856
      9         32           0        0.507681   -0.579949   -2.298523
 ---------------------------------------------------------------------
                    Distance matrix (angstroms):
                    1          2          3          4          5
     1  Bi   0.000000
     2  Ge   4.426592   0.000000
     3  Bi   2.957186   4.466828   0.000000
     4  Bi   3.573998   2.975445   4.621211   0.000000
     5  Sn   3.127215   3.079471   3.199780   4.584177   0.000000
     6  Bi   4.618603   3.050836   3.539013   2.940335   4.621207
     7  Sn   4.845341   2.884315   3.046293   4.802144   3.001605
     8  Ge   2.888287   2.698078   4.670710   2.832569   2.830544
     9  Ge   2.900492   4.637838   2.906419   2.914346   4.817830
                    6          7          8          9
     6  Bi   0.000000
     7  Sn   2.990093   0.000000
     8  Ge   4.627718   4.682313   0.000000
     9  Ge   2.917210   4.698473   4.470375   0.000000
 Stoichiometry    Bi4Ge3Sn2
 Framework group  C1[X(Bi4Ge3Sn2)]
 Deg. of freedom    21
 Full point group                 C1      NOp   1
 RotChk:  IX=0 Diff= 2.17D-03
 Largest Abelian subgroup         C1      NOp   1
 Largest concise Abelian subgroup C1      NOp   1
                         Standard orientation:                         
 ---------------------------------------------------------------------
 Center     Atomic      Atomic             Coordinates (Angstroms)
 Number     Number       Type             X           Y           Z
 ---------------------------------------------------------------------
      1         83           0       -1.423597   -1.873107   -0.562666
      2         32           0        1.158674    0.463522    2.169871
      3         83           0       -1.688126    0.995414   -1.230920
      4         83           0        2.068135   -1.386076    0.023912
      5         50           0       -1.878857    0.086864    1.831228
      6         83           0        1.771240    1.461159   -0.647412
      7         50           0       -0.426119    2.590502    1.036884
      8         32           0        0.049576   -1.983253    1.919234
      9         32           0        0.505927   -0.581887   -2.301212
 ---------------------------------------------------------------------
 Rotational constants (GHZ):      0.1028371      0.0985501      0.0837171
 Leave Link  202 at Tue Mar  6 16:00:24 2018, MaxMem=   536870912 cpu:         0.0
 (Enter /share/apps//mg09/l301.exe)
 Standard basis: def2TZVP (5D, 7F)
 Ernie: Thresh=  0.10000D-02 Tol=  0.10000D-05 Strict=F.
 There are   519 symmetry adapted cartesian basis functions of A   symmetry.
 There are   444 symmetry adapted basis functions of A   symmetry.
   444 basis functions,   963 primitive gaussians,   519 cartesian basis functions
   116 alpha electrons      116 beta electrons
       nuclear repulsion energy      3593.8182540042 Hartrees.
 IExCor= 1009 DFT=T Ex+Corr=PBE1PBE ExCW=0 ScaHFX=  0.250000
 ScaDFX=  0.750000  0.750000  1.000000  1.000000 ScalE2=  1.000000  1.000000
 IRadAn=      0 IRanWt=     -1 IRanGd=            0 ICorTp=0 IEmpDi=  4
 NAtoms=    9 NActive=    9 NUniq=    9 SFac= 1.00D+00 NAtFMM=   60 NAOKFM=F Big=F
 Integral buffers will be    131072 words long.
 Raffenetti 2 integral format.
 Two-electron integral symmetry is turned on.
 Leave Link  301 at Tue Mar  6 16:00:24 2018, MaxMem=   536870912 cpu:         0.2
 (Enter /share/apps//mg09/l302.exe)
 NPDir=0 NMtPBC=     1 NCelOv=     1 NCel=       1 NClECP=     1 NCelD=      1
         NCelK=      1 NCelE2=     1 NClLst=     1 CellRange=     0.0.
 One-electron integrals computed using PRISM.
   1 Symmetry operations used in ECPInt.
 ECPInt:  NShTT=   10440 NPrTT=   41973 LenC2=    9689 LenP2D=   27679.
 LDataN:  DoStor=T MaxTD1= 8 Len=  415
 NBasis=   444 RedAO= T EigKep=  1.14D-03  NBF=   444
 NBsUse=   444 1.00D-06 EigRej= -1.00D+00 NBFU=   444
 Precomputing XC quadrature grid using
 IXCGrd= 4 IRadAn=           0 IRanWt=          -1 IRanGd=           0 AccXCQ= 0.00D+00.
 Defaulting to unpruned grid for atomic number  83.
 Defaulting to unpruned grid for atomic number  83.
 Defaulting to unpruned grid for atomic number  50.
 Generated NRdTot=       0 NPtTot=           0 NUsed=           0 NTot=          32
 NSgBfM=   505   505   505   505   505 MxSgAt=     9 MxSgA2=     9.
 Leave Link  302 at Tue Mar  6 16:00:30 2018, MaxMem=   536870912 cpu:        26.7
 (Enter /share/apps//mg09/l303.exe)
 DipDrv:  MaxL=1.
 Leave Link  303 at Tue Mar  6 16:00:31 2018, MaxMem=   536870912 cpu:         0.2
 (Enter /share/apps//mg09/l401.exe)
 Initial guess from the checkpoint file:  "Isomer_48.chk"
 B after Tr=     0.000000    0.000000    0.000000
         Rot=    1.000000    0.000544   -0.000413   -0.000300 Ang=   0.09 deg.
 Guess basis will be translated and rotated to current coordinates.
 JPrj=2 DoOrth=T DoCkMO=T.
 Generating alternative initial guess.
 ExpMin= 4.62D-02 ExpMax= 4.66D+05 ExpMxC= 4.50D+03 IAcc=2 IRadAn=         4 AccDes= 0.00D+00
 Harris functional with IExCor= 1009 and IRadAn=       4 diagonalized for initial guess.
 HarFok:  IExCor= 1009 AccDes= 0.00D+00 IRadAn=         4 IDoV= 1 UseB2=F ITyADJ=14
 ICtDFT=  3500011 ScaDFX=  1.000000  1.000000  1.000000  1.000000
 Defaulting to unpruned grid for atomic number  83.
 Defaulting to unpruned grid for atomic number  83.
 Defaulting to unpruned grid for atomic number  83.
 Defaulting to unpruned grid for atomic number  83.
 FoFCou: FMM=F IPFlag=           0 FMFlag=      100000 FMFlg1=           0
         NFxFlg=           0 DoJE=T BraDBF=F KetDBF=T FulRan=T
         wScrn=  0.000000 ICntrl=     500 IOpCl=  0 I1Cent=   200000004 NGrid=           0
         NMat0=    1 NMatS0=      1 NMatT0=    0 NMatD0=    1 NMtDS0=    0 NMtDT0=    0
 Petite list used in FoFCou.
 Harris En= -7518.61403114520    
 Leave Link  401 at Tue Mar  6 16:00:33 2018, MaxMem=   536870912 cpu:        11.3
 (Enter /share/apps//mg09/l502.exe)
 Closed shell SCF:
 Using DIIS extrapolation, IDIIS=  1040.
 Integral symmetry usage will be decided dynamically.
 IVT=     1410107 IEndB=     1410107 NGot=   536870912 MDV=   536322046
 LenX=   536322046 LenY=   536052166
 Requested convergence on RMS density matrix=1.00D-08 within 768 cycles.
 Requested convergence on MAX density matrix=1.00D-06.
 Requested convergence on             energy=1.00D-06.
 No special actions if energy rises.
 Fock matrices will be formed incrementally for  20 cycles.

 Cycle   1  Pass 1  IDiag  1:
 FoFJK:  IHMeth= 1 ICntrl=       0 DoSepK=F KAlg= 0 I1Cent=   0 FoldK=F
 IRaf= 880000000 NMat=   1 IRICut=       1 DoRegI=T DoRafI=F ISym2E= 0.
 FoFCou: FMM=F IPFlag=           0 FMFlag=      100000 FMFlg1=           0
         NFxFlg=           0 DoJE=F BraDBF=F KetDBF=F FulRan=T
         wScrn=  0.000000 ICntrl=       0 IOpCl=  0 I1Cent=           0 NGrid=           0
         NMat0=    1 NMatS0=      1 NMatT0=    0 NMatD0=    1 NMtDS0=    0 NMtDT0=    0
 Symmetry not used in FoFCou.
 Defaulting to unpruned grid for atomic number  83.
 Defaulting to unpruned grid for atomic number  83.
 Defaulting to unpruned grid for atomic number  83.
 Defaulting to unpruned grid for atomic number  83.
 E= -7517.81237701839    
 DIIS: error= 5.29D-03 at cycle   1 NSaved=   1.
 NSaved= 1 IEnMin= 1 EnMin= -7517.81237701839     IErMin= 1 ErrMin= 5.29D-03
 ErrMax= 5.29D-03  0.00D+00 EMaxC= 1.00D-01 BMatC= 8.14D-03 BMatP= 8.14D-03
 IDIUse=3 WtCom= 9.47D-01 WtEn= 5.29D-02
 Coeff-Com:  0.100D+01
 Coeff-En:   0.100D+01
 Coeff:      0.100D+01
 Gap=     8.190 Goal=   None    Shift=    0.000
 GapD=    8.190 DampG=2.000 DampE=1.000 DampFc=2.0000 IDamp=-1.
 RMSDP=1.74D-04 MaxDP=5.75D-03              OVMax= 2.21D-02

 Cycle   2  Pass 1  IDiag  1:
 RMSU=  1.73D-04    CP:  1.00D+00
 E= -7517.81242958947     Delta-E=       -0.000052571082 Rises=F Damp=F
 DIIS: error= 1.43D-03 at cycle   2 NSaved=   2.
 NSaved= 2 IEnMin= 2 EnMin= -7517.81242958947     IErMin= 2 ErrMin= 1.43D-03
 ErrMax= 1.43D-03  0.00D+00 EMaxC= 1.00D-01 BMatC= 1.44D-03 BMatP= 8.14D-03
 IDIUse=3 WtCom= 9.86D-01 WtEn= 1.43D-02
 Coeff-Com:  0.189D+00 0.811D+00
 Coeff-En:   0.484D+00 0.516D+00
 Coeff:      0.193D+00 0.807D+00
 Gap=     0.115 Goal=   None    Shift=    0.000
 RMSDP=2.00D-04 MaxDP=8.32D-03 DE=-5.26D-05 OVMax= 1.53D-02

 Cycle   3  Pass 1  IDiag  1:
 RMSU=  1.80D-04    CP:  9.99D-01  5.27D-01
 E= -7517.81073447273     Delta-E=        0.001695116747 Rises=F Damp=F
 DIIS: error= 2.08D-03 at cycle   3 NSaved=   3.
 NSaved= 3 IEnMin= 2 EnMin= -7517.81242958947     IErMin= 2 ErrMin= 1.43D-03
 ErrMax= 2.08D-03  0.00D+00 EMaxC= 1.00D-01 BMatC= 3.47D-03 BMatP= 1.44D-03
 IDIUse=3 WtCom= 1.80D-01 WtEn= 8.20D-01
 Coeff-Com:  0.568D-02 0.607D+00 0.388D+00
 Coeff-En:   0.000D+00 0.665D+00 0.335D+00
 Coeff:      0.102D-02 0.655D+00 0.344D+00
 Gap=     0.116 Goal=   None    Shift=    0.000
 RMSDP=1.10D-04 MaxDP=4.80D-03 DE= 1.70D-03 OVMax= 1.08D-02

 Cycle   4  Pass 1  IDiag  1:
 RMSU=  3.82D-05    CP:  9.99D-01  7.88D-01  4.95D-01
 E= -7517.81340847904     Delta-E=       -0.002674006315 Rises=F Damp=F
 DIIS: error= 4.43D-04 at cycle   4 NSaved=   4.
 NSaved= 4 IEnMin= 4 EnMin= -7517.81340847904     IErMin= 4 ErrMin= 4.43D-04
 ErrMax= 4.43D-04  0.00D+00 EMaxC= 1.00D-01 BMatC= 1.79D-04 BMatP= 1.44D-03
 IDIUse=3 WtCom= 9.96D-01 WtEn= 4.43D-03
 Coeff-Com:  0.106D-03 0.438D+00 0.237D+00 0.325D+00
 Coeff-En:   0.000D+00 0.828D-01 0.000D+00 0.917D+00
 Coeff:      0.106D-03 0.437D+00 0.236D+00 0.328D+00
 Gap=     0.116 Goal=   None    Shift=    0.000
 RMSDP=3.63D-05 MaxDP=1.33D-03 DE=-2.67D-03 OVMax= 4.24D-03

 Cycle   5  Pass 1  IDiag  1:
 RMSU=  1.45D-05    CP:  9.99D-01  8.48D-01  4.47D-01  2.08D-01
 E= -7517.81355075242     Delta-E=       -0.000142273379 Rises=F Damp=F
 DIIS: error= 1.30D-04 at cycle   5 NSaved=   5.
 NSaved= 5 IEnMin= 5 EnMin= -7517.81355075242     IErMin= 5 ErrMin= 1.30D-04
 ErrMax= 1.30D-04  0.00D+00 EMaxC= 1.00D-01 BMatC= 1.68D-05 BMatP= 1.79D-04
 IDIUse=3 WtCom= 9.99D-01 WtEn= 1.30D-03
 Coeff-Com: -0.872D-03 0.222D+00 0.107D+00 0.257D+00 0.414D+00
 Coeff-En:   0.000D+00 0.000D+00 0.000D+00 0.127D+00 0.873D+00
 Coeff:     -0.871D-03 0.222D+00 0.107D+00 0.257D+00 0.415D+00
 Gap=     0.116 Goal=   None    Shift=    0.000
 RMSDP=1.12D-05 MaxDP=6.29D-04 DE=-1.42D-04 OVMax= 1.61D-03

 Cycle   6  Pass 1  IDiag  1:
 RMSU=  4.28D-06    CP:  9.99D-01  8.54D-01  4.40D-01  4.05D-01  5.44D-01
 E= -7517.81356874688     Delta-E=       -0.000017994458 Rises=F Damp=F
 DIIS: error= 2.00D-05 at cycle   6 NSaved=   6.
 NSaved= 6 IEnMin= 6 EnMin= -7517.81356874688     IErMin= 6 ErrMin= 2.00D-05
 ErrMax= 2.00D-05  0.00D+00 EMaxC= 1.00D-01 BMatC= 7.22D-07 BMatP= 1.68D-05
 IDIUse=1 WtCom= 1.00D+00 WtEn= 0.00D+00
 Coeff-Com: -0.536D-03 0.112D+00 0.537D-01 0.139D+00 0.258D+00 0.438D+00
 Coeff:     -0.536D-03 0.112D+00 0.537D-01 0.139D+00 0.258D+00 0.438D+00
 Gap=     0.116 Goal=   None    Shift=    0.000
 RMSDP=3.85D-06 MaxDP=1.36D-04 DE=-1.80D-05 OVMax= 6.11D-04

 Cycle   7  Pass 1  IDiag  1:
 RMSU=  2.96D-06    CP:  9.99D-01  8.57D-01  4.42D-01  3.95D-01  6.18D-01
                    CP:  5.08D-01
 E= -7517.81356896521     Delta-E=       -0.000000218335 Rises=F Damp=F
 DIIS: error= 2.13D-05 at cycle   7 NSaved=   7.
 NSaved= 7 IEnMin= 7 EnMin= -7517.81356896521     IErMin= 6 ErrMin= 2.00D-05
 ErrMax= 2.13D-05  0.00D+00 EMaxC= 1.00D-01 BMatC= 5.27D-07 BMatP= 7.22D-07
 IDIUse=1 WtCom= 1.00D+00 WtEn= 0.00D+00
 Coeff-Com: -0.169D-03 0.172D-01 0.874D-02 0.309D-01 0.845D-01 0.436D+00
 Coeff-Com:  0.423D+00
 Coeff:     -0.169D-03 0.172D-01 0.874D-02 0.309D-01 0.845D-01 0.436D+00
 Coeff:      0.423D+00
 Gap=     0.116 Goal=   None    Shift=    0.000
 RMSDP=2.27D-06 MaxDP=1.10D-04 DE=-2.18D-07 OVMax= 3.42D-04

 Cycle   8  Pass 1  IDiag  1:
 RMSU=  8.90D-07    CP:  9.99D-01  8.58D-01  4.44D-01  3.97D-01  6.27D-01
                    CP:  8.34D-01  5.05D-01
 E= -7517.81356961620     Delta-E=       -0.000000650991 Rises=F Damp=F
 DIIS: error= 4.41D-06 at cycle   8 NSaved=   8.
 NSaved= 8 IEnMin= 8 EnMin= -7517.81356961620     IErMin= 8 ErrMin= 4.41D-06
 ErrMax= 4.41D-06  0.00D+00 EMaxC= 1.00D-01 BMatC= 4.16D-08 BMatP= 5.27D-07
 IDIUse=1 WtCom= 1.00D+00 WtEn= 0.00D+00
 Coeff-Com:  0.793D-06-0.131D-01-0.555D-02-0.812D-02 0.200D-02 0.205D+00
 Coeff-Com:  0.284D+00 0.535D+00
 Coeff:      0.793D-06-0.131D-01-0.555D-02-0.812D-02 0.200D-02 0.205D+00
 Coeff:      0.284D+00 0.535D+00
 Gap=     0.116 Goal=   None    Shift=    0.000
 RMSDP=6.98D-07 MaxDP=3.96D-05 DE=-6.51D-07 OVMax= 7.26D-05

 Cycle   9  Pass 1  IDiag  1:
 RMSU=  2.83D-07    CP:  9.99D-01  8.59D-01  4.45D-01  4.01D-01  6.34D-01
                    CP:  8.50D-01  6.36D-01  5.29D-01
 E= -7517.81356965741     Delta-E=       -0.000000041206 Rises=F Damp=F
 DIIS: error= 1.52D-06 at cycle   9 NSaved=   9.
 NSaved= 9 IEnMin= 9 EnMin= -7517.81356965741     IErMin= 9 ErrMin= 1.52D-06
 ErrMax= 1.52D-06  0.00D+00 EMaxC= 1.00D-01 BMatC= 4.21D-09 BMatP= 4.16D-08
 IDIUse=1 WtCom= 1.00D+00 WtEn= 0.00D+00
 Coeff-Com:  0.184D-04-0.986D-02-0.418D-02-0.826D-02-0.822D-02 0.832D-01
 Coeff-Com:  0.131D+00 0.337D+00 0.479D+00
 Coeff:      0.184D-04-0.986D-02-0.418D-02-0.826D-02-0.822D-02 0.832D-01
 Coeff:      0.131D+00 0.337D+00 0.479D+00
 Gap=     0.116 Goal=   None    Shift=    0.000
 RMSDP=2.37D-07 MaxDP=1.20D-05 DE=-4.12D-08 OVMax= 2.80D-05

 Cycle  10  Pass 1  IDiag  1:
 RMSU=  1.46D-07    CP:  9.99D-01  8.59D-01  4.45D-01  4.02D-01  6.38D-01
                    CP:  8.56D-01  6.27D-01  6.41D-01  5.76D-01
 E= -7517.81356966086     Delta-E=       -0.000000003449 Rises=F Damp=F
 DIIS: error= 9.32D-07 at cycle  10 NSaved=  10.
 NSaved=10 IEnMin=10 EnMin= -7517.81356966086     IErMin=10 ErrMin= 9.32D-07
 ErrMax= 9.32D-07  0.00D+00 EMaxC= 1.00D-01 BMatC= 9.23D-10 BMatP= 4.21D-09
 IDIUse=1 WtCom= 1.00D+00 WtEn= 0.00D+00
 Coeff-Com:  0.134D-04-0.632D-02-0.266D-02-0.550D-02-0.634D-02 0.464D-01
 Coeff-Com:  0.757D-01 0.209D+00 0.361D+00 0.328D+00
 Coeff:      0.134D-04-0.632D-02-0.266D-02-0.550D-02-0.634D-02 0.464D-01
 Coeff:      0.757D-01 0.209D+00 0.361D+00 0.328D+00
 Gap=     0.116 Goal=   None    Shift=    0.000
 RMSDP=1.06D-07 MaxDP=4.24D-06 DE=-3.45D-09 OVMax= 1.43D-05

 Cycle  11  Pass 1  IDiag  1:
 RMSU=  6.08D-08    CP:  9.99D-01  8.59D-01  4.45D-01  4.02D-01  6.39D-01
                    CP:  8.58D-01  6.26D-01  6.43D-01  7.21D-01  4.92D-01
 E= -7517.81356966236     Delta-E=       -0.000000001499 Rises=F Damp=F
 DIIS: error= 2.41D-07 at cycle  11 NSaved=  11.
 NSaved=11 IEnMin=11 EnMin= -7517.81356966236     IErMin=11 ErrMin= 2.41D-07
 ErrMax= 2.41D-07  0.00D+00 EMaxC= 1.00D-01 BMatC= 1.05D-10 BMatP= 9.23D-10
 IDIUse=1 WtCom= 1.00D+00 WtEn= 0.00D+00
 Coeff-Com:  0.133D-05-0.917D-04 0.627D-05-0.208D-03-0.104D-02-0.496D-02
 Coeff-Com: -0.483D-02-0.936D-03 0.618D-01 0.256D+00 0.694D+00
 Coeff:      0.133D-05-0.917D-04 0.627D-05-0.208D-03-0.104D-02-0.496D-02
 Coeff:     -0.483D-02-0.936D-03 0.618D-01 0.256D+00 0.694D+00
 Gap=     0.116 Goal=   None    Shift=    0.000
 RMSDP=3.93D-08 MaxDP=1.85D-06 DE=-1.50D-09 OVMax= 6.07D-06

 Cycle  12  Pass 1  IDiag  1:
 RMSU=  1.72D-08    CP:  9.99D-01  8.59D-01  4.45D-01  4.02D-01  6.39D-01
                    CP:  8.62D-01  6.30D-01  6.43D-01  7.35D-01  6.64D-01
                    CP:  8.57D-01
 E= -7517.81356966190     Delta-E=        0.000000000455 Rises=F Damp=F
 DIIS: error= 4.94D-08 at cycle  12 NSaved=  12.
 NSaved=12 IEnMin=11 EnMin= -7517.81356966236     IErMin=12 ErrMin= 4.94D-08
 ErrMax= 4.94D-08  0.00D+00 EMaxC= 1.00D-01 BMatC= 6.08D-12 BMatP= 1.05D-10
 IDIUse=1 WtCom= 1.00D+00 WtEn= 0.00D+00
 Coeff-Com: -0.295D-06 0.389D-03 0.181D-03 0.270D-03-0.695D-04-0.563D-02
 Coeff-Com: -0.718D-02-0.157D-01-0.280D-03 0.103D+00 0.348D+00 0.577D+00
 Coeff:     -0.295D-06 0.389D-03 0.181D-03 0.270D-03-0.695D-04-0.563D-02
 Coeff:     -0.718D-02-0.157D-01-0.280D-03 0.103D+00 0.348D+00 0.577D+00
 Gap=     0.116 Goal=   None    Shift=    0.000
 RMSDP=1.09D-08 MaxDP=6.27D-07 DE= 4.55D-10 OVMax= 1.38D-06

 Cycle  13  Pass 1  IDiag  1:
 RMSU=  6.52D-09    CP:  9.99D-01  8.59D-01  4.45D-01  4.02D-01  6.39D-01
                    CP:  8.62D-01  6.31D-01  6.45D-01  7.46D-01  6.83D-01
                    CP:  9.10D-01  6.90D-01
 E= -7517.81356966192     Delta-E=       -0.000000000018 Rises=F Damp=F
 DIIS: error= 1.94D-08 at cycle  13 NSaved=  13.
 NSaved=13 IEnMin=11 EnMin= -7517.81356966236     IErMin=13 ErrMin= 1.94D-08
 ErrMax= 1.94D-08  0.00D+00 EMaxC= 1.00D-01 BMatC= 8.73D-13 BMatP= 6.08D-12
 IDIUse=1 WtCom= 1.00D+00 WtEn= 0.00D+00
 Coeff-Com: -0.305D-06 0.239D-03 0.106D-03 0.186D-03 0.819D-04-0.281D-02
 Coeff-Com: -0.375D-02-0.861D-02-0.622D-02 0.356D-01 0.125D+00 0.329D+00
 Coeff-Com:  0.531D+00
 Coeff:     -0.305D-06 0.239D-03 0.106D-03 0.186D-03 0.819D-04-0.281D-02
 Coeff:     -0.375D-02-0.861D-02-0.622D-02 0.356D-01 0.125D+00 0.329D+00
 Coeff:      0.531D+00
 Gap=     0.116 Goal=   None    Shift=    0.000
 RMSDP=3.30D-09 MaxDP=1.51D-07 DE=-1.82D-11 OVMax= 4.37D-07

 SCF Done:  E(RPBE1PBE) =  -7517.81356966     A.U. after   13 cycles
            NFock= 13  Conv=0.33D-08     -V/T= 2.1284
 KE= 6.662186599156D+03 PE=-2.477898407461D+04 EE= 7.005165651785D+03
 Leave Link  502 at Tue Mar  6 16:10:09 2018, MaxMem=   536870912 cpu:      2297.2
 (Enter /share/apps//mg09/l701.exe)
 Compute integral first derivatives.
 ... and contract with generalized density number  0.
   1 Symmetry operations used in ECPInt.
 ECPInt:  NShTT=   10440 NPrTT=   41973 LenC2=    9689 LenP2D=   27679.
 LDataN:  DoStor=T MaxTD1= 9 Len=  602
 Leave Link  701 at Tue Mar  6 16:10:26 2018, MaxMem=   536870912 cpu:        66.4
 (Enter /share/apps//mg09/l702.exe)
 L702 exits ... SP integral derivatives will be done elsewhere.
 Leave Link  702 at Tue Mar  6 16:10:26 2018, MaxMem=   536870912 cpu:         0.1
 (Enter /share/apps//mg09/l703.exe)
 Compute integral first derivatives, UseDBF=F ICtDFT=           0.
 Integral derivatives from FoFJK, PRISM(SPDF).
 Calling FoFJK, ICntrl=      2127 FMM=F ISym2X=0 I1Cent= 0 IOpClX= 0 NMat=1 NMatS=1 NMatT=0.
 FoFJK:  IHMeth= 1 ICntrl=    2127 DoSepK=F KAlg= 0 I1Cent=   0 FoldK=F
 IRaf=         0 NMat=   1 IRICut=       1 DoRegI=T DoRafI=F ISym2E= 0.
 FoFCou: FMM=F IPFlag=           0 FMFlag=      100000 FMFlg1=         800
         NFxFlg=           0 DoJE=F BraDBF=F KetDBF=F FulRan=T
         wScrn=  0.000000 ICntrl=    2127 IOpCl=  0 I1Cent=           0 NGrid=           0
         NMat0=    1 NMatS0=      1 NMatT0=    0 NMatD0=    1 NMtDS0=    0 NMtDT0=    0
 Symmetry not used in FoFCou.
 Defaulting to unpruned grid for atomic number  83.
 Defaulting to unpruned grid for atomic number  83.
 Defaulting to unpruned grid for atomic number  83.
 Defaulting to unpruned grid for atomic number  83.
 Leave Link  703 at Tue Mar  6 16:13:18 2018, MaxMem=   536870912 cpu:       687.9
 (Enter /share/apps//mg09/l716.exe)
 Dipole        =-3.88949016D-02 1.05040312D-01-4.24326691D-01
 ***** Axes restored to original set *****
 -------------------------------------------------------------------
 Center     Atomic                   Forces (Hartrees/Bohr)
 Number     Number              X              Y              Z
 -------------------------------------------------------------------
      1       83           0.002145951    0.000765260    0.001105795
      2       32          -0.006858040   -0.003052120   -0.005124122
      3       83           0.001868815   -0.000264066    0.000464304
      4       83          -0.002733012    0.000369442    0.001138189
      5       50           0.007322533   -0.000396659   -0.002190527
      6       83          -0.002050542   -0.000908884    0.000262497
      7       50           0.001034540   -0.004832010    0.001242040
      8       32           0.000416585    0.007171483   -0.002254990
      9       32          -0.001146830    0.001147554    0.005356814
 -------------------------------------------------------------------
 Cartesian Forces:  Max     0.007322533 RMS     0.003216565
 Leave Link  716 at Tue Mar  6 16:13:18 2018, MaxMem=   536870912 cpu:         0.1
 (Enter /share/apps//mg09/l103.exe)

 GradGradGradGradGradGradGradGradGradGradGradGradGradGradGradGradGradGrad
 Berny optimization.
 Search for a local minimum.
 Step number   2 out of a maximum of  100
 All quantities printed in internal units (Hartrees-Bohrs-Radians)
 Update second derivatives using D2CorN and points    1    2
 DE= -5.46D-03 DEPred=-3.97D-03 R= 1.38D+00
 TightC=F SS=  1.41D+00  RLast= 2.13D-01 DXNew= 5.0454D-01 6.3819D-01
 Trust test= 1.38D+00 RLast= 2.13D-01 DXMaxT set to 5.05D-01
 ITU=  1  0
     Eigenvalues ---    0.09345   0.11415   0.12405   0.12823   0.13849
     Eigenvalues ---    0.15181   0.15608   0.16132   0.16589   0.18600
     Eigenvalues ---    0.18850   0.23387   0.24442   0.25104   0.25851
     Eigenvalues ---    0.26152   0.28700   0.29430   0.30246   0.31829
     Eigenvalues ---    0.32651
 RFO step:  Lambda=-3.80132806D-04 EMin= 9.34497478D-02
 Quartic linear search produced a step of  0.65125.
 TrRot= -0.000269  0.000063 -0.000026  0.000005 -0.000049  0.000005
 MatCor failed.
 Variable       Old X    -DE/DX   Delta X   Delta X   Delta X     New X
                                 (Linear)    (Quad)   (Total)
    X1       -2.69036   0.00215   0.02297   0.00329   0.02607  -2.66429
    Y1       -3.53798   0.00077   0.02821  -0.01468   0.01357  -3.52441
    Z1       -1.06353   0.00111   0.01281  -0.00037   0.01229  -1.05124
    X2        2.18894  -0.00686  -0.03571  -0.01476  -0.05094   2.13800
    Y2        0.86808  -0.00305  -0.01317  -0.00680  -0.01988   0.84820
    Z2        4.10881  -0.00512  -0.03356  -0.00759  -0.04106   4.06774
    X3       -3.18621   0.00187   0.02673  -0.00117   0.02539  -3.16083
    Y3        1.88465  -0.00026  -0.01475   0.01168  -0.00303   1.88161
    Z3       -2.31974   0.00046   0.02140  -0.00956   0.01167  -2.30807
    X4        3.90793  -0.00273  -0.03209   0.00125  -0.03109   3.87684
    Y4       -2.62302   0.00037   0.02075  -0.01269   0.00816  -2.61486
    Z4        0.05012   0.00114   0.00387   0.00099   0.00502   0.05514
[...]
     X            X     X                   X                X   X                                                                   
     X            X     X                   X                X                                                                       
     X            X     X                   X                X                                                                       
                  X     X                   X                                                                                        
                  X     X                   X                                                                                        
                  X     X                   X                                                                                        
                  X     X                   X                                                                                        
                  X     X                   X                                                                                        
                  X     X                                                                                                            
                  X     X                                                                                                            
                  X     X                                                                                                            
                  X     X                                                                                                            
                  X     X                                                                                                            
                  X                                                                                                                  
                  X                                                                                                                  
 
 ***** Axes restored to original set *****
 -------------------------------------------------------------------
 Center     Atomic                   Forces (Hartrees/Bohr)
 Number     Number              X              Y              Z
 -------------------------------------------------------------------
      1       83          -0.000011050   -0.000005938    0.000025530
      2       32          -0.000006513    0.000000353    0.000019524
      3       83           0.000035067   -0.000014149   -0.000003283
      4       83          -0.000001419   -0.000002310   -0.000003664
      5       50           0.000019433   -0.000004001    0.000048598
      6       83          -0.000018962   -0.000012424   -0.000039898
      7       50          -0.000025276    0.000007539   -0.000003640
      8       32           0.000018146    0.000001889   -0.000019357
      9       32          -0.000009426    0.000029042   -0.000023810
 -------------------------------------------------------------------
 Cartesian Forces:  Max     0.000048598 RMS     0.000019693
 Force constants in Cartesian coordinates: 
                1             2             3             4             5 
      1  0.502952D-01
      2  0.195956D-01  0.780169D-01
      3  0.245273D-02  0.305591D-02  0.618217D-01
      4 -0.584874D-02  0.226430D-02 -0.485718D-02  0.498506D-01
      5  0.664427D-04 -0.246028D-02 -0.410157D-02 -0.460175D-02  0.656240D-01
      6  0.796843D-03 -0.120603D-02 -0.392124D-02  0.108107D-01  0.146673D-01
      7  0.133471D-03 -0.198424D-02 -0.394457D-02 -0.543786D-02  0.143112D-02
      8 -0.939006D-03 -0.453097D-01  0.947573D-02 -0.382046D-02  0.214731D-02
      9 -0.226226D-02  0.124174D-01 -0.564729D-02 -0.344781D-02  0.374470D-02
     10 -0.760077D-02  0.223602D-02 -0.531478D-03 -0.660245D-02  0.879231D-02
     11 -0.601710D-02  0.786376D-03  0.114588D-02  0.123549D-01 -0.882833D-02
     12 -0.203537D-02  0.267571D-02 -0.273691D-02  0.772123D-02 -0.130080D-01
     13 -0.249633D-03 -0.295025D-02  0.292101D-02 -0.233391D-01 -0.196142D-02
     14 -0.993968D-03 -0.120211D-01 -0.164306D-01 -0.313199D-02  0.146676D-02
     15  0.298406D-02 -0.170378D-01 -0.194393D-01 -0.542428D-02 -0.259218D-02
     16 -0.431821D-02 -0.349906D-02  0.244421D-02  0.165673D-03 -0.154817D-02
     17  0.686522D-05 -0.384233D-02  0.334798D-02 -0.295269D-02 -0.152071D-02
     18 -0.345242D-02 -0.115467D-02  0.262300D-02  0.936225D-03  0.240310D-03
     19  0.639834D-03 -0.454711D-02  0.113427D-02 -0.674633D-02  0.140891D-01
     20  0.902441D-03 -0.241444D-02 -0.376607D-03  0.111805D-01 -0.212605D-01
     21  0.176367D-02 -0.220659D-02 -0.361786D-03 -0.560991D-02  0.931197D-02
     22 -0.108075D-01 -0.296296D-04 -0.175119D-01 -0.387960D-02 -0.128733D-01
     23 -0.732538D-03 -0.535423D-02 -0.175033D-05 -0.990996D-02 -0.315665D-01
     24 -0.156130D-01 -0.269125D-03 -0.192753D-01 -0.327150D-02 -0.768795D-02
     25 -0.222437D-01 -0.110856D-01  0.178929D-01  0.183782D-02 -0.339431D-02
     26 -0.118887D-01 -0.740121D-02  0.388502D-02 -0.138285D-02 -0.360170D-02
     27  0.153657D-01  0.372517D-02 -0.130628D-01  0.314254D-02 -0.574582D-03
                6             7             8             9            10 
      6  0.491696D-01
      7 -0.960870D-03  0.541733D-01
      8 -0.175874D-02 -0.111743D-01  0.722085D-01
      9 -0.706925D-02  0.172519D-01 -0.613115D-02  0.496814D-01
     10  0.723842D-02 -0.464479D-02 -0.926025D-03  0.113540D-02  0.706893D-01
     11 -0.137513D-01  0.299840D-02 -0.305865D-02  0.700367D-03 -0.222334D-01
     12 -0.166707D-01 -0.601710D-02  0.253763D-02  0.215124D-02 -0.800684D-02
     13  0.330415D-03 -0.166555D-02  0.185342D-02  0.880990D-03 -0.512285D-02
     14 -0.223423D-02  0.166803D-02 -0.926493D-04  0.288624D-02 -0.116002D-03
     15 -0.231485D-02  0.216407D-02  0.448729D-02 -0.102110D-01 -0.696043D-03
     16 -0.150950D-02 -0.245039D-01 -0.156965D-02 -0.327383D-02 -0.451814D-02
     17  0.171018D-02 -0.456427D-02 -0.435968D-02  0.136216D-02  0.100994D-01
     18 -0.677048D-02 -0.529369D-02  0.135903D-02  0.144042D-02 -0.106735D-02
     19 -0.498266D-02 -0.395171D-02 -0.326698D-02 -0.989257D-02 -0.275477D-03
     20  0.492525D-02 -0.401474D-02 -0.103596D-01 -0.101083D-01 -0.744357D-04
     21 -0.325063D-02 -0.101063D-01 -0.105859D-01 -0.206588D-01 -0.115210D-02
     22 -0.601676D-02 -0.356461D-03  0.754702D-02 -0.198495D-02 -0.269346D-01
     23 -0.210740D-02  0.219351D-03 -0.326319D-02  0.194818D-02 -0.438824D-02
     24 -0.234471D-02  0.466202D-02  0.627142D-02 -0.378407D-02  0.181610D-01
     25 -0.570658D-02 -0.137465D-01  0.122960D-01  0.159317D-02 -0.149902D-01
     26 -0.244991D-03  0.154207D-01 -0.791236D-02 -0.681965D-02  0.661038D-02
     27 -0.682773D-02  0.224458D-02 -0.565534D-02 -0.590268D-02 -0.150810D-01
               11            12            13            14            15 
     11  0.686672D-01
     12 -0.945018D-02  0.604195D-01
     13 -0.273293D-02  0.363828D-02  0.587954D-01
     14 -0.354925D-02 -0.212715D-02 -0.183208D-02  0.605102D-01
     15 -0.157590D-02 -0.281493D-02 -0.154104D-01  0.899880D-02  0.424010D-01
     16  0.100396D-01  0.136797D-02 -0.591564D-02 -0.413003D-02  0.133710D-02
     17 -0.443580D-01  0.138386D-01  0.180574D-02  0.161738D-02 -0.615892D-03
     18  0.170702D-01 -0.457267D-02  0.140678D-02  0.296700D-02 -0.503185D-02
     19  0.553961D-02 -0.572220D-03 -0.580056D-02 -0.152621D-01  0.476540D-02
     20 -0.196733D-02 -0.846040D-03 -0.122642D-01 -0.261709D-01  0.426703D-02
     21 -0.157426D-02 -0.132741D-02  0.470005D-02  0.689566D-02 -0.159605D-03
     22 -0.631191D-02  0.211725D-01 -0.159282D-01  0.201202D-01  0.357858D-02
     23 -0.504921D-02  0.540963D-02  0.162605D-01 -0.197539D-01  0.253197D-02
     24  0.554404D-02 -0.112067D-01  0.280239D-02 -0.116812D-02  0.165850D-02
     25  0.636287D-02 -0.172684D-01 -0.773948D-03  0.367789D-02  0.670146D-02
     26 -0.264277D-02  0.969808D-03  0.182123D-02 -0.200660D-02  0.153669D-02
     27  0.189122D-02 -0.232414D-01 -0.126955D-02  0.212377D-03 -0.408796D-02
               16            17            18            19            20 
     16  0.618533D-01
     17  0.498718D-02  0.815104D-01
     18 -0.149121D-01 -0.373491D-02  0.412123D-01
     19 -0.184120D-01  0.801030D-02  0.194649D-01  0.411356D-01
     20  0.799018D-02 -0.789259D-02 -0.806726D-02 -0.458811D-02  0.741269D-01
     21  0.197272D-01 -0.864542D-02 -0.173706D-01 -0.914288D-02  0.104835D-01
     22  0.155294D-02 -0.717707D-02  0.327231D-02 -0.613547D-02  0.501610D-03
     23  0.320125D-03 -0.575665D-02  0.357970D-02 -0.112583D-02 -0.299438D-02
     24 -0.414193D-02  0.330850D-02 -0.473892D-02 -0.827462D-03 -0.109482D-02
     25 -0.590403D-02 -0.102155D-01 -0.354641D-03 -0.453899D-03  0.366784D-03
     26 -0.125901D-01 -0.153978D-01 -0.122594D-01  0.115110D-02 -0.106712D-02
     27 -0.103912D-02 -0.105712D-01 -0.679122D-02  0.532450D-04  0.817258D-03
               21            22            23            24            25 
     21  0.470021D-01
     22 -0.120019D-02  0.638896D-01
     23  0.110032D-02 -0.589750D-03  0.720465D-01
     24 -0.229880D-02 -0.182902D-02 -0.952104D-02  0.457486D-01
     25  0.102047D-02 -0.140072D-02 -0.536508D-04  0.575039D-04  0.576752D-01
     26 -0.477930D-02 -0.118719D-02  0.169158D-02  0.461709D-02  0.204552D-02
     27 -0.157444D-02  0.519426D-03 -0.293961D-02 -0.375854D-02 -0.393586D-02
               26            27 
     26  0.383380D-01
     27  0.130947D-01  0.652467D-01
 Leave Link  716 at Wed Mar  7 01:49:42 2018, MaxMem=   536870912 cpu:         0.1
 (Enter /share/apps//mg09/l103.exe)

 GradGradGradGradGradGradGradGradGradGradGradGradGradGradGradGradGradGrad
 Berny optimization.
 Search for a local minimum.
 Step number   1 out of a maximum of    2
 All quantities printed in internal units (Hartrees-Bohrs-Radians)
 Second derivative matrix not updated -- analytic derivatives used.
 ITU=  0
     Eigenvalues ---    0.00597   0.01266   0.02926   0.04058   0.04171
     Eigenvalues ---    0.05076   0.05334   0.05756   0.05884   0.06242
     Eigenvalues ---    0.06745   0.06940   0.07655   0.08854   0.09770
     Eigenvalues ---    0.10280   0.12014   0.12286   0.12992   0.14223
     Eigenvalues ---    0.14895
 Angle between quadratic step and forces=  52.70 degrees.
 Linear search not attempted -- first point.
 TrRot= -0.000004 -0.000022 -0.000009  0.000000 -0.000006  0.000000
 Variable       Old X    -DE/DX   Delta X   Delta X   Delta X     New X
                                 (Linear)    (Quad)   (Total)
    X1       -3.07218  -0.00001   0.00000  -0.00119  -0.00119  -3.07337
    Y1       -3.40055  -0.00001   0.00000   0.00071   0.00069  -3.39986
    Z1       -1.06035   0.00003   0.00000   0.00038   0.00036  -1.06000
    X2        2.03143  -0.00001   0.00000  -0.00056  -0.00059   2.03084
    Y2        0.73839   0.00000   0.00000  -0.00018  -0.00020   0.73819
    Z2        4.12722   0.00002   0.00000   0.00077   0.00078   4.12799
    X3       -2.83925   0.00004   0.00000   0.00118   0.00119  -2.83805
    Y3        2.07225  -0.00001   0.00000   0.00021   0.00019   2.07244
    Z3       -2.41196   0.00000   0.00000  -0.00084  -0.00087  -2.41283
    X4        4.23248   0.00000   0.00000   0.00060   0.00059   4.23307
    Y4       -2.34152   0.00000   0.00000   0.00066   0.00064  -2.34088
    Z4        0.19454   0.00000   0.00000   0.00044   0.00045   0.19500
    X5       -3.44019   0.00002   0.00000   0.00069   0.00066  -3.43952
    Y5        0.10137   0.00000   0.00000  -0.00028  -0.00030   0.10108
    Z5        3.49208   0.00005   0.00000   0.00160   0.00157   3.49365
    X6        2.99359  -0.00002   0.00000  -0.00027  -0.00026   2.99333
    Y6        2.86503  -0.00001   0.00000   0.00007   0.00005   2.86508
    Z6       -1.48232  -0.00004   0.00000  -0.00078  -0.00077  -1.48309
    X7       -0.76956  -0.00003   0.00000  -0.00063  -0.00064  -0.77020
    Y7        4.86123   0.00001   0.00000  -0.00002  -0.00004   4.86118
    Z7        2.19764   0.00000   0.00000  -0.00042  -0.00043   2.19720
    X8        0.14306   0.00002   0.00000   0.00019   0.00016   0.14322
    Y8       -3.73714   0.00000   0.00000  -0.00040  -0.00043  -3.73757
    Z8        3.29047  -0.00002   0.00000  -0.00139  -0.00140   3.28907
    X9        0.98836  -0.00001   0.00000   0.00005   0.00007   0.98843
    Y9       -1.60506   0.00003   0.00000  -0.00057  -0.00059  -1.60565
    Z9       -4.06367  -0.00002   0.00000   0.00032   0.00032  -4.06335
         Item               Value     Threshold  Converged?
 Maximum Force            0.000049     0.000450     YES
 RMS     Force            0.000020     0.000300     YES
 Maximum Displacement     0.001567     0.001800     YES
 RMS     Displacement     0.000696     0.001200     YES
 Predicted change in Energy=-1.097433D-07
 Optimization completed.
    -- Stationary point found.
 GradGradGradGradGradGradGradGradGradGradGradGradGradGradGradGradGradGrad

 Leave Link  103 at Wed Mar  7 01:49:42 2018, MaxMem=   536870912 cpu:         0.1
 (Enter /share/apps//mg09/l9999.exe)
 1\1\GINC-COMPUTE-0-5\Freq\RPBE1PBE\def2TZVP\Bi4Ge3Sn2\RODRIGO\07-Mar-2
 018\0\\#P Geom=AllCheck Guess=TCheck SCRF=Check GenChk RPBE1PBE/def2TZ
 VP Freq\\01Final_coords.xyz_48\\0,1\Bi,-1.6257289147,-1.7994938866,-0.
 5611152475\Ge,1.0749851805,0.3907415731,2.1840290599\Bi,-1.5024649179,
 1.0965877103,-1.2763544238\Bi,2.2397317539,-1.2390765049,0.1029475533\
 Sn,-1.8204680853,0.0536450251,1.8479309953\Bi,1.5841419975,1.516106746
 3,-0.7844096719\Sn,-0.4072315619,2.5724506856,1.1629384187\Ge,0.075705
 2752,-1.9776113885,1.741242391\Ge,0.523017273,-0.8493609606,-2.1504030
 75\\Version=ES64L-G09RevD.01\State=1-A\HF=-7517.8169111\RMSD=5.991e-09
 \RMSF=1.969e-05\ZeroPoint=0.0058218\Thermal=0.0232942\Dipole=-0.063164
 9,0.3470749,-0.5151271\DipoleDeriv=0.0215938,0.0928921,0.1116711,-0.01
 7446,-0.0146479,0.0433927,0.0371165,0.0179609,-0.150673,-0.0351072,0.0
 523082,0.0620977,0.0956707,-0.1277566,-0.0034447,-0.0133245,-0.0786945
 ,0.0029746,0.0774207,0.0418175,0.0238616,0.0210157,-0.0154089,-0.06700
 73,-0.0107606,-0.0125363,0.0002903,0.0883412,-0.060672,-0.0306062,0.03
 23745,-0.0376529,0.0231323,0.0467897,-0.0082439,-0.1368445,0.1938167,-
 0.0127861,-0.1928065,-0.0403584,-0.0511457,-0.0220108,-0.0705631,-0.05
 39965,0.1684014,0.0875869,-0.0214647,0.0401808,0.0147315,-0.0179841,-0
 .0622599,0.0524738,0.0021676,0.0027811,-0.0641492,-0.0853042,-0.002112
 9,-0.0565516,0.3941425,0.1791754,0.0049915,0.1637487,0.0084014,-0.2255
 058,0.0085036,0.0111659,-0.04571,-0.0509648,-0.0712298,0.0134312,-0.08
 4283,0.0121722,-0.143997,-0.0152944,-0.0234514,-0.0037263,-0.0785815,-
 0.0197478,-0.0601544,0.0538769,0.0924964\Polar=376.349793,-2.2188575,3
 88.8293071,-9.0144395,7.1758943,366.768572\PG=C01 [X(Bi4Ge3Sn2)]\NImag
 =0\\0.05029522,0.01959561,0.07801690,0.00245273,0.00305591,0.06182166,
 -0.00584874,0.00226430,-0.00485718,0.04985056,0.00006644,-0.00246028,-
 0.00410157,-0.00460175,0.06562396,0.00079684,-0.00120603,-0.00392124,0
 .01081069,0.01466731,0.04916962,0.00013347,-0.00198424,-0.00394457,-0.
 00543786,0.00143112,-0.00096087,0.05417332,-0.00093901,-0.04530967,0.0
 0947573,-0.00382046,0.00214731,-0.00175874,-0.01117435,0.07220850,-0.0
 0226226,0.01241744,-0.00564729,-0.00344781,0.00374470,-0.00706925,0.01
 725187,-0.00613115,0.04968143,-0.00760077,0.00223602,-0.00053148,-0.00
 660245,0.00879231,0.00723842,-0.00464479,-0.00092602,0.00113540,0.0706
 8928,-0.00601710,0.00078638,0.00114588,0.01235494,-0.00882833,-0.01375
 134,0.00299840,-0.00305865,0.00070037,-0.02223345,0.06866720,-0.002035
 37,0.00267571,-0.00273691,0.00772123,-0.01300800,-0.01667072,-0.006017
 10,0.00253763,0.00215124,-0.00800684,-0.00945018,0.06041947,-0.0002496
 3,-0.00295025,0.00292101,-0.02333907,-0.00196142,0.00033041,-0.0016655
 5,0.00185342,0.00088099,-0.00512285,-0.00273293,0.00363828,0.05879542,
 -0.00099397,-0.01202112,-0.01643059,-0.00313199,0.00146676,-0.00223423
 ,0.00166803,-0.00009265,0.00288624,-0.00011600,-0.00354925,-0.00212715
 ,-0.00183208,0.06051024,0.00298406,-0.01703780,-0.01943930,-0.00542428
 ,-0.00259218,-0.00231485,0.00216407,0.00448729,-0.01021096,-0.00069604
 ,-0.00157590,-0.00281493,-0.01541035,0.00899880,0.04240096,-0.00431821
 ,-0.00349906,0.00244421,0.00016567,-0.00154817,-0.00150950,-0.02450391
 ,-0.00156965,-0.00327383,-0.00451814,0.01003956,0.00136797,-0.00591564
 ,-0.00413003,0.00133710,0.06185332,0.00000687,-0.00384233,0.00334798,-
 0.00295269,-0.00152071,0.00171018,-0.00456427,-0.00435968,0.00136216,0
 .01009943,-0.04435802,0.01383859,0.00180574,0.00161738,-0.00061589,0.0
 0498718,0.08151040,-0.00345242,-0.00115467,0.00262300,0.00093622,0.000
 24031,-0.00677048,-0.00529369,0.00135903,0.00144042,-0.00106735,0.0170
 7017,-0.00457267,0.00140678,0.00296700,-0.00503185,-0.01491209,-0.0037
 3491,0.04121227,0.00063983,-0.00454711,0.00113427,-0.00674633,0.014089
 08,-0.00498266,-0.00395171,-0.00326698,-0.00989257,-0.00027548,0.00553
 961,-0.00057222,-0.00580056,-0.01526206,0.00476540,-0.01841201,0.00801
 030,0.01946488,0.04113561,0.00090244,-0.00241444,-0.00037661,0.0111804
 5,-0.02126052,0.00492525,-0.00401474,-0.01035961,-0.01010829,-0.000074
 44,-0.00196733,-0.00084604,-0.01226419,-0.02617086,0.00426703,0.007990
 18,-0.00789259,-0.00806726,-0.00458811,0.07412686,0.00176367,-0.002206
 59,-0.00036179,-0.00560991,0.00931197,-0.00325063,-0.01010630,-0.01058
 587,-0.02065884,-0.00115210,-0.00157426,-0.00132741,0.00470005,0.00689
 566,-0.00015961,0.01972720,-0.00864542,-0.01737055,-0.00914288,0.01048
 349,0.04700207,-0.01080748,-0.00002963,-0.01751188,-0.00387960,-0.0128
 7330,-0.00601676,-0.00035646,0.00754702,-0.00198495,-0.02693464,-0.006
 31191,0.02117248,-0.01592817,0.02012021,0.00357858,0.00155294,-0.00717
 707,0.00327231,-0.00613547,0.00050161,-0.00120019,0.06388959,-0.000732
 54,-0.00535423,-0.00000175,-0.00990996,-0.03156648,-0.00210740,0.00021
 935,-0.00326319,0.00194818,-0.00438824,-0.00504921,0.00540963,0.016260
 48,-0.01975389,0.00253197,0.00032012,-0.00575665,0.00357970,-0.0011258
 3,-0.00299438,0.00110032,-0.00058975,0.07204645,-0.01561297,-0.0002691
 3,-0.01927535,-0.00327150,-0.00768795,-0.00234471,0.00466202,0.0062714
 2,-0.00378407,0.01816097,0.00554404,-0.01120670,0.00280239,-0.00116812
 ,0.00165850,-0.00414193,0.00330850,-0.00473892,-0.00082746,-0.00109482
 ,-0.00229880,-0.00182902,-0.00952104,0.04574859,-0.02224369,-0.0110856
 4,0.01789290,0.00183782,-0.00339431,-0.00570658,-0.01374653,0.01229603
 ,0.00159317,-0.01499018,0.00636287,-0.01726842,-0.00077395,0.00367789,
 0.00670146,-0.00590403,-0.01021549,-0.00035464,-0.00045390,0.00036678,
 0.00102047,-0.00140072,-0.00005365,0.00005750,0.05767517,-0.01188875,-
 0.00740121,0.00388502,-0.00138285,-0.00360170,-0.00024499,0.01542070,-
 0.00791236,-0.00681965,0.00661038,-0.00264277,0.00096981,0.00182123,-0
 .00200660,0.00153669,-0.01259015,-0.01539780,-0.01225937,0.00115110,-0
 .00106712,-0.00477930,-0.00118719,0.00169158,0.00461709,0.00204552,0.0
 3833799,0.01536573,0.00372517,-0.01306279,0.00314254,-0.00057458,-0.00
 682773,0.00224458,-0.00565534,-0.00590268,-0.01508097,0.00189122,-0.02
 324137,-0.00126955,0.00021238,-0.00408796,-0.00103912,-0.01057119,-0.0
 0679122,0.00005325,0.00081726,-0.00157444,0.00051943,-0.00293961,-0.00
 375854,-0.00393586,0.01309470,0.06524673\\0.00001105,0.00000594,-0.000
 02553,0.00000651,-0.00000035,-0.00001952,-0.00003507,0.00001415,0.0000
 0328,0.00000142,0.00000231,0.00000366,-0.00001943,0.00000400,-0.000048
 60,0.00001896,0.00001242,0.00003990,0.00002528,-0.00000754,0.00000364,
 -0.00001815,-0.00000189,0.00001936,0.00000943,-0.00002904,0.00002381\\
 \@


 "PERFECTION IS NOT AN ACCIDENT"
         --  EAGLE ELECTRIC MANUFACTURING CO.,INC. NY
 Job cpu time:       0 days  3 hours 49 minutes 24.8 seconds.
 File lengths (MBytes):  RWF=    299 Int=      0 D2E=      0 Chk=     16 Scr=      1
 Normal termination of Gaussian 09 at Wed Mar  7 01:49:44 2018.
