 Entering Gaussian System, Link 0=/share/apps/mg09/g09
 Initial command:
 /share/apps//mg09/l1.exe "/state/partition1/gauss_tmp/Gau-12495.inp" -scrdir="/state/partition1/gauss_tmp/"
 Entering Link 1 = /share/apps//mg09/l1.exe PID=     12503.
  
 Copyright (c) 1988,1990,1992,1993,1995,1998,2003,2009,2013,
            Gaussian, Inc.  All Rights Reserved.
  
 This is part of the Gaussian(R) 09 program.  It is based on
 the Gaussian(R) 03 system (copyright 2003, Gaussian, Inc.),
 the Gaussian(R) 98 system (copyright 1998, Gaussian, Inc.),
 the Gaussian(R) 94 system (copyright 1995, Gaussian, Inc.),
 the Gaussian 92(TM) system (copyright 1992, Gaussian, Inc.),
 the Gaussian 90(TM) system (copyright 1990, Gaussian, Inc.),
 the Gaussian 88(TM) system (copyright 1988, Gaussian, Inc.),
 the Gaussian 86(TM) system (copyright 1986, Carnegie Mellon
 University), and the Gaussian 82(TM) system (copyright 1983,
 Carnegie Mellon University). Gaussian is a federally registered
 trademark of Gaussian, Inc.
  
 This software contains proprietary and confidential information,
 including trade secrets, belonging to Gaussian, Inc.
  
 This software is provided under written license and may be
 used, copied, transmitted, or stored only in accord with that
 written license.
  
 The following legend is applicable only to US Government
 contracts under FAR:
  
                    RESTRICTED RIGHTS LEGEND
  
 Use, reproduction and disclosure by the US Government is
 subject to restrictions as set forth in subparagraphs (a)
 and (c) of the Commercial Computer Software - Restricted
 Rights clause in FAR 52.227-19.
  
 Gaussian, Inc.
 340 Quinnipiac St., Bldg. 40, Wallingford CT 06492
  
  
 ---------------------------------------------------------------
 Warning -- This program may not be used in any manner that
 competes with the business of Gaussian, Inc. or will provide
 assistance to any competitor of Gaussian, Inc.  The licensee
 of this program is prohibited from giving any competitor of
 Gaussian, Inc. access to this program.  By using this program,
 the user acknowledges that Gaussian, Inc. is engaged in the
 business of creating and licensing software in the field of
 computational chemistry and represents and warrants to the
 licensee that it is not a competitor of Gaussian, Inc. and that
 it will not use this program in any manner prohibited above.
 ---------------------------------------------------------------
  

 Cite this work as:
 Gaussian 09, Revision D.01,
 M. J. Frisch, G. W. Trucks, H. B. Schlegel, G. E. Scuseria, 
 M. A. Robb, J. R. Cheeseman, G. Scalmani, V. Barone, B. Mennucci, 
 G. A. Petersson, H. Nakatsuji, M. Caricato, X. Li, H. P. Hratchian, 
 A. F. Izmaylov, J. Bloino, G. Zheng, J. L. Sonnenberg, M. Hada, 
 M. Ehara, K. Toyota, R. Fukuda, J. Hasegawa, M. Ishida, T. Nakajima, 
 Y. Honda, O. Kitao, H. Nakai, T. Vreven, J. A. Montgomery, Jr., 
 J. E. Peralta, F. Ogliaro, M. Bearpark, J. J. Heyd, E. Brothers, 
 K. N. Kudin, V. N. Staroverov, T. Keith, R. Kobayashi, J. Normand, 
 K. Raghavachari, A. Rendell, J. C. Burant, S. S. Iyengar, J. Tomasi, 
 M. Cossi, N. Rega, J. M. Millam, M. Klene, J. E. Knox, J. B. Cross, 
 V. Bakken, C. Adamo, J. Jaramillo, R. Gomperts, R. E. Stratmann, 
 O. Yazyev, A. J. Austin, R. Cammi, C. Pomelli, J. W. Ochterski, 
 R. L. Martin, K. Morokuma, V. G. Zakrzewski, G. A. Voth, 
 P. Salvador, J. J. Dannenberg, S. Dapprich, A. D. Daniels, 
 O. Farkas, J. B. Foresman, J. V. Ortiz, J. Cioslowski, 
 and D. J. Fox, Gaussian, Inc., Wallingford CT, 2013.
 
 ******************************************
 Gaussian 09:  ES64L-G09RevD.01 24-Apr-2013
                 6-Mar-2018 
 ******************************************
 %NProcShared=4
 Will use up to    4 processors via shared memory.
 %LindaWorkers=compute-0-4
 %chk=Isomer_16.chk
 %NProc=4
 Will use up to    4 processors via shared memory.
 %mem=4GB
 SetLPE:  input flags=" -vv -opt "Tsnet.Node.lindarsharg: ssh" "
 SetLPE:    new flags=" -vv -opt "Tsnet.Node.lindarsharg: ssh"  -nodelist 'compute-0-4.local'"
 Will use up to    1 processors via Linda.
 ----------------------------------------------------------------------
 #p PBE1PBE/Def2TZVP scf=(maxcycle=768) opt=(cartesian,maxcycle=512) fr
 eq
 ----------------------------------------------------------------------
 1/6=512,10=7,14=-1,18=10,26=3,38=1/1,3;
 2/12=2,17=6,18=5,29=2,40=1/2;
 3/5=44,7=101,11=2,16=1,25=1,30=1,71=1,74=-13/1,2,3;
 4//1;
 5/5=2,7=768,38=5/2;
 6/7=2,8=2,9=2,10=2,28=1/1;
 7/7=1,29=1/1,2,3,16;
 1/6=512,10=7,14=-1,18=10,26=3/3(2);
 2/29=1/2;
 99/12=1/99;
 2/29=1/2;
 3/5=44,7=101,11=2,16=1,25=1,30=1,71=1,74=-13/1,2,3;
 4/5=5,16=3,69=1/1;
 5/5=2,7=768,38=5/2;
 7/7=1/1,2,3,16;
 1/6=512,14=-1,18=10,26=3/3(-5);
 2/29=1/2;
 6/7=2,8=2,9=2,10=2,19=2,28=1/1;
 99/9=1,12=1/99;
 Leave Link    1 at Tue Mar  6 11:56:29 2018, MaxMem=   536870912 cpu:         0.5
 (Enter /share/apps//mg09/l101.exe)
 ---------------------
 01Final_coords.xyz_16
 ---------------------
 Symbolic Z-matrix:
 Charge =  0 Multiplicity = 1
 83                   -1.9751    0.49528  -1.31316 
 32                    0.19439   2.3176   -1.64345 
 32                    0.75917  -0.30984  -2.33582 
 50                   -0.64379   2.1828    1.25863 
 83                    2.15021   1.27453   0.14956 
 32                    0.88365  -0.25825   2.31898 
 83                   -1.87949  -0.61186   1.53826 
 83                    1.92625  -1.73157   0.01317 
 50                   -0.90032  -2.35027  -0.83985 
 
 NAtoms=      9 NQM=        9 NQMF=       0 NMMI=      0 NMMIF=      0
                NMic=       0 NMicF=      0.
                    Isotopes and Nuclear Properties:
 (Nuclear quadrupole moments (NQMom) in fm**2, nuclear magnetic moments (NMagM)
  in nuclear magnetons)

  Atom         1           2           3           4           5           6           7           8           9
 IAtWgt=         209          74          74         118         209          74         209         209         118
 AtmWgt= 208.9804000  73.9211788  73.9211788 117.9018000 208.9804000  73.9211788 208.9804000 208.9804000 117.9018000
 NucSpn=           9           0           0           0           9           0           9           9           0
 AtZEff=   0.0000000   0.0000000   0.0000000   0.0000000   0.0000000   0.0000000   0.0000000   0.0000000   0.0000000
 NQMom=  -51.6000000   0.0000000   0.0000000   0.0000000 -51.6000000   0.0000000 -51.6000000 -51.6000000   0.0000000
 NMagM=    4.1106000   0.0000000   0.0000000   0.0000000   4.1106000   0.0000000   4.1106000   4.1106000   0.0000000
 AtZNuc=  83.0000000  32.0000000  32.0000000  50.0000000  83.0000000  32.0000000  83.0000000  83.0000000  50.0000000
 Leave Link  101 at Tue Mar  6 11:56:38 2018, MaxMem=   536870912 cpu:         0.3
 (Enter /share/apps//mg09/l103.exe)

 GradGradGradGradGradGradGradGradGradGradGradGradGradGradGradGradGradGrad
 Berny optimization.
 Initialization pass.
 No Z-matrix variables, so optimization will use Cartesian coordinates.
 Trust Radius=3.00D-01 FncErr=1.00D-07 GrdErr=1.00D-06
 Number of steps in this run=    100 maximum allowed number of steps=    100.
 GradGradGradGradGradGradGradGradGradGradGradGradGradGradGradGradGradGrad

 Leave Link  103 at Tue Mar  6 11:56:56 2018, MaxMem=   536870912 cpu:         0.1
 (Enter /share/apps//mg09/l202.exe)
 ---------------------------------------------------------------------------------------------------
                            Z-MATRIX (ANGSTROMS AND DEGREES)
   CD    Cent   Atom    N1       Length/X        N2       Alpha/Y        N3        Beta/Z          J
 ---------------------------------------------------------------------------------------------------
      1      1  Bi       0  -1.975099          0.495278         -1.313158
      2      2  Ge       0   0.194388          2.317601         -1.643448
      3      3  Ge       0   0.759170         -0.309840         -2.335822
      4      4  Sn       0  -0.643789          2.182799          1.258631
      5      5  Bi       0   2.150206          1.274531          0.149564
      6      6  Ge       0   0.883647         -0.258252          2.318979
      7      7  Bi       0  -1.879488         -0.611861          1.538258
      8      8  Bi       0   1.926246         -1.731574          0.013167
      9      9  Sn       0  -0.900318         -2.350266         -0.839845
 ---------------------------------------------------------------------------------------------------
                         Z-Matrix orientation:                         
 ---------------------------------------------------------------------
 Center     Atomic      Atomic             Coordinates (Angstroms)
 Number     Number       Type             X           Y           Z
 ---------------------------------------------------------------------
      1         83           0       -1.975099    0.495278   -1.313158
      2         32           0        0.194388    2.317601   -1.643448
      3         32           0        0.759170   -0.309840   -2.335822
      4         50           0       -0.643789    2.182799    1.258631
      5         83           0        2.150206    1.274531    0.149564
      6         32           0        0.883647   -0.258252    2.318979
      7         83           0       -1.879488   -0.611861    1.538258
      8         83           0        1.926246   -1.731574    0.013167
      9         50           0       -0.900318   -2.350266   -0.839845
 ---------------------------------------------------------------------
                    Distance matrix (angstroms):
                    1          2          3          4          5
     1  Bi   0.000000
     2  Ge   2.852477   0.000000
     3  Ge   3.028248   2.775213   0.000000
     4  Sn   3.351748   3.023702   4.593652   0.000000
     5  Bi   4.445777   2.850984   3.259196   3.140285   0.000000
     6  Ge   4.683231   4.776078   4.656751   3.068571   2.942780
     7  Bi   3.060306   4.796453   4.697045   3.068431   4.661049
     8  Bi   4.683855   4.705266   2.983478   4.845470   3.017520
     9  Sn   3.078360   4.861393   3.025754   5.001808   4.839812
                    6          7          8          9
     6  Ge   0.000000
     7  Bi   2.893005   0.000000
     8  Bi   2.928218   4.250091   0.000000
     9  Sn   4.187747   3.104223   3.016600   0.000000
 Stoichiometry    Bi4Ge3Sn2
 Framework group  C1[X(Bi4Ge3Sn2)]
 Deg. of freedom    21
 Full point group                 C1      NOp   1
 Largest Abelian subgroup         C1      NOp   1
 Largest concise Abelian subgroup C1      NOp   1
                         Standard orientation:                         
 ---------------------------------------------------------------------
 Center     Atomic      Atomic             Coordinates (Angstroms)
 Number     Number       Type             X           Y           Z
 ---------------------------------------------------------------------
      1         83           0        1.975099   -0.495277   -1.313158
      2         32           0       -0.194387   -2.317601   -1.643448
      3         32           0       -0.759170    0.309840   -2.335822
      4         50           0        0.643790   -2.182799    1.258631
      5         83           0       -2.150206   -1.274532    0.149564
      6         32           0       -0.883647    0.258252    2.318979
      7         83           0        1.879488    0.611862    1.538258
      8         83           0       -1.926247    1.731573    0.013167
      9         50           0        0.900317    2.350266   -0.839845
 ---------------------------------------------------------------------
 Rotational constants (GHZ):      0.1042556      0.0890958      0.0807252
 Leave Link  202 at Tue Mar  6 11:56:58 2018, MaxMem=   536870912 cpu:         0.0
 (Enter /share/apps//mg09/l301.exe)
 Standard basis: def2TZVP (5D, 7F)
 Ernie: Thresh=  0.10000D-02 Tol=  0.10000D-05 Strict=F.
 There are   519 symmetry adapted cartesian basis functions of A   symmetry.
 There are   444 symmetry adapted basis functions of A   symmetry.
   444 basis functions,   963 primitive gaussians,   519 cartesian basis functions
   116 alpha electrons      116 beta electrons
       nuclear repulsion energy      3530.4640113327 Hartrees.
 IExCor= 1009 DFT=T Ex+Corr=PBE1PBE ExCW=0 ScaHFX=  0.250000
 ScaDFX=  0.750000  0.750000  1.000000  1.000000 ScalE2=  1.000000  1.000000
 IRadAn=      0 IRanWt=     -1 IRanGd=            0 ICorTp=0 IEmpDi=  4
 NAtoms=    9 NActive=    9 NUniq=    9 SFac= 1.00D+00 NAtFMM=   60 NAOKFM=F Big=F
 Integral buffers will be    131072 words long.
 Raffenetti 2 integral format.
 Two-electron integral symmetry is turned on.
 Leave Link  301 at Tue Mar  6 11:57:14 2018, MaxMem=   536870912 cpu:         0.3
 (Enter /share/apps//mg09/l302.exe)
 NPDir=0 NMtPBC=     1 NCelOv=     1 NCel=       1 NClECP=     1 NCelD=      1
         NCelK=      1 NCelE2=     1 NClLst=     1 CellRange=     0.0.
 One-electron integrals computed using PRISM.
   1 Symmetry operations used in ECPInt.
 ECPInt:  NShTT=   10440 NPrTT=   41973 LenC2=    9656 LenP2D=   27477.
 LDataN:  DoStor=T MaxTD1= 8 Len=  415
 NBasis=   444 RedAO= T EigKep=  1.55D-03  NBF=   444
 NBsUse=   444 1.00D-06 EigRej= -1.00D+00 NBFU=   444
 Precomputing XC quadrature grid using
 IXCGrd= 4 IRadAn=           0 IRanWt=          -1 IRanGd=           0 AccXCQ= 0.00D+00.
 Defaulting to unpruned grid for atomic number  83.
 Defaulting to unpruned grid for atomic number  83.
 Defaulting to unpruned grid for atomic number  50.
 Generated NRdTot=       0 NPtTot=           0 NUsed=           0 NTot=          32
 NSgBfM=   505   505   505   505   505 MxSgAt=     9 MxSgA2=     9.
 Leave Link  302 at Tue Mar  6 11:57:30 2018, MaxMem=   536870912 cpu:        25.6
 (Enter /share/apps//mg09/l303.exe)
 DipDrv:  MaxL=1.
 Leave Link  303 at Tue Mar  6 11:57:39 2018, MaxMem=   536870912 cpu:         0.3
 (Enter /share/apps//mg09/l401.exe)
 ExpMin= 4.62D-02 ExpMax= 4.66D+05 ExpMxC= 4.50D+03 IAcc=2 IRadAn=         4 AccDes= 0.00D+00
 Harris functional with IExCor= 1009 and IRadAn=       4 diagonalized for initial guess.
 HarFok:  IExCor= 1009 AccDes= 0.00D+00 IRadAn=         4 IDoV= 1 UseB2=F ITyADJ=14
 ICtDFT=  3500011 ScaDFX=  1.000000  1.000000  1.000000  1.000000
 Defaulting to unpruned grid for atomic number  83.
 Defaulting to unpruned grid for atomic number  83.
 Defaulting to unpruned grid for atomic number  83.
 Defaulting to unpruned grid for atomic number  83.
 FoFCou: FMM=F IPFlag=           0 FMFlag=      100000 FMFlg1=           0
         NFxFlg=           0 DoJE=T BraDBF=F KetDBF=T FulRan=T
         wScrn=  0.000000 ICntrl=     500 IOpCl=  0 I1Cent=   200000004 NGrid=           0
         NMat0=    1 NMatS0=      1 NMatT0=    0 NMatD0=    1 NMtDS0=    0 NMtDT0=    0
 Petite list used in FoFCou.
 Harris En= -7518.59828982678    
 JPrj=0 DoOrth=F DoCkMO=F.
 Leave Link  401 at Tue Mar  6 11:57:48 2018, MaxMem=   536870912 cpu:        10.0
 (Enter /share/apps//mg09/l502.exe)
 Closed shell SCF:
 Using DIIS extrapolation, IDIIS=  1040.
 Integral symmetry usage will be decided dynamically.
 IVT=     1410107 IEndB=     1410107 NGot=   536870912 MDV=   536322046
 LenX=   536322046 LenY=   536052166
 Requested convergence on RMS density matrix=1.00D-08 within 768 cycles.
 Requested convergence on MAX density matrix=1.00D-06.
 Requested convergence on             energy=1.00D-06.
 No special actions if energy rises.
 Fock matrices will be formed incrementally for  20 cycles.

 Cycle   1  Pass 1  IDiag  1:
 FoFJK:  IHMeth= 1 ICntrl=       0 DoSepK=F KAlg= 0 I1Cent=   0 FoldK=F
 IRaf= 880000000 NMat=   1 IRICut=       1 DoRegI=T DoRafI=F ISym2E= 0.
 FoFCou: FMM=F IPFlag=           0 FMFlag=      100000 FMFlg1=           0
         NFxFlg=           0 DoJE=F BraDBF=F KetDBF=F FulRan=T
         wScrn=  0.000000 ICntrl=       0 IOpCl=  0 I1Cent=           0 NGrid=           0
         NMat0=    1 NMatS0=      1 NMatT0=    0 NMatD0=    1 NMtDS0=    0 NMtDT0=    0
 Symmetry not used in FoFCou.
 Defaulting to unpruned grid for atomic number  83.
 Defaulting to unpruned grid for atomic number  83.
 Defaulting to unpruned grid for atomic number  83.
 Defaulting to unpruned grid for atomic number  83.
 E= -7517.30551790208    
 DIIS: error= 3.15D-02 at cycle   1 NSaved=   1.
 NSaved= 1 IEnMin= 1 EnMin= -7517.30551790208     IErMin= 1 ErrMin= 3.15D-02
 ErrMax= 3.15D-02  0.00D+00 EMaxC= 1.00D-01 BMatC= 1.42D+00 BMatP= 1.42D+00
 IDIUse=3 WtCom= 6.85D-01 WtEn= 3.15D-01
 Coeff-Com:  0.100D+01
 Coeff-En:   0.100D+01
 Coeff:      0.100D+01
 Gap=     0.120 Goal=   None    Shift=    0.000
 GapD=    0.120 DampG=1.000 DampE=0.500 DampFc=0.5000 IDamp=-1.
 Damping current iteration by 5.00D-01
 RMSDP=4.28D-03 MaxDP=1.79D-01              OVMax= 2.96D-01

 Cycle   2  Pass 1  IDiag  1:
 RMSU=  2.14D-03    CP:  1.00D+00
 E= -7517.47365339557     Delta-E=       -0.168135493488 Rises=F Damp=T
 DIIS: error= 9.50D-03 at cycle   2 NSaved=   2.
 NSaved= 2 IEnMin= 2 EnMin= -7517.47365339557     IErMin= 2 ErrMin= 9.50D-03
 ErrMax= 9.50D-03  0.00D+00 EMaxC= 1.00D-01 BMatC= 1.31D-01 BMatP= 1.42D+00
 IDIUse=3 WtCom= 9.05D-01 WtEn= 9.50D-02
 Coeff-Com:  0.134D-01 0.987D+00
 Coeff-En:   0.284D+00 0.716D+00
 Coeff:      0.391D-01 0.961D+00
 Gap=     0.168 Goal=   None    Shift=    0.000
 RMSDP=1.73D-03 MaxDP=1.20D-01 DE=-1.68D-01 OVMax= 3.34D-01

 Cycle   3  Pass 1  IDiag  1:
 RMSU=  1.50D-03    CP:  1.01D+00  5.93D-01
 E= -7517.52871561976     Delta-E=       -0.055062224186 Rises=F Damp=F
 DIIS: error= 1.23D-02 at cycle   3 NSaved=   3.
 NSaved= 3 IEnMin= 3 EnMin= -7517.52871561976     IErMin= 2 ErrMin= 9.50D-03
 ErrMax= 1.23D-02  0.00D+00 EMaxC= 1.00D-01 BMatC= 2.89D-01 BMatP= 1.31D-01
 IDIUse=2 WtCom= 0.00D+00 WtEn= 1.00D+00
 Coeff-En:   0.000D+00 0.433D+00 0.567D+00
 Coeff:      0.000D+00 0.433D+00 0.567D+00
 Gap=     0.171 Goal=   None    Shift=    0.000
 RMSDP=2.56D-03 MaxDP=1.13D-01 DE=-5.51D-02 OVMax= 3.17D-01

 Cycle   4  Pass 1  IDiag  1:
 RMSU=  1.17D-03    CP:  1.00D+00  1.14D+00 -3.02D-01
 E= -7517.35220599926     Delta-E=        0.176509620494 Rises=F Damp=F
 DIIS: error= 1.67D-02 at cycle   4 NSaved=   4.
 NSaved= 4 IEnMin= 3 EnMin= -7517.52871561976     IErMin= 2 ErrMin= 9.50D-03
 ErrMax= 1.67D-02  0.00D+00 EMaxC= 1.00D-01 BMatC= 3.77D-01 BMatP= 1.31D-01
 IDIUse=2 WtCom= 0.00D+00 WtEn= 1.00D+00
 Coeff-En:   0.000D+00 0.000D+00 0.583D+00 0.417D+00
 Coeff:      0.000D+00 0.000D+00 0.583D+00 0.417D+00
 Gap=     0.141 Goal=   None    Shift=    0.000
 RMSDP=1.69D-03 MaxDP=6.08D-02 DE= 1.77D-01 OVMax= 2.24D-01

 Cycle   5  Pass 1  IDiag  1:
 RMSU=  7.13D-04    CP:  9.99D-01  9.74D-01  2.85D-01 -3.10D-02
 E= -7517.73728350789     Delta-E=       -0.385077508628 Rises=F Damp=F
 DIIS: error= 7.04D-03 at cycle   5 NSaved=   5.
 NSaved= 5 IEnMin= 5 EnMin= -7517.73728350789     IErMin= 5 ErrMin= 7.04D-03
 ErrMax= 7.04D-03  0.00D+00 EMaxC= 1.00D-01 BMatC= 8.25D-02 BMatP= 1.31D-01
 IDIUse=3 WtCom= 9.30D-01 WtEn= 7.04D-02
 EnCoef did     4 forward-backward iterations
 Coeff-Com:  0.621D-02 0.267D-01 0.375D+00 0.287D+00 0.306D+00
 Coeff-En:   0.000D+00 0.000D+00 0.227D+00 0.171D+00 0.602D+00
 Coeff:      0.577D-02 0.249D-01 0.364D+00 0.279D+00 0.326D+00
 Gap=     0.125 Goal=   None    Shift=    0.000
 RMSDP=7.34D-04 MaxDP=4.25D-02 DE=-3.85D-01 OVMax= 8.09D-02

 Cycle   6  Pass 1  IDiag  1:
 RMSU=  2.20D-04    CP:  1.00D+00  8.42D-01  3.25D-01  3.33D-01  3.51D-01
 E= -7517.81131152316     Delta-E=       -0.074028015271 Rises=F Damp=F
 DIIS: error= 1.08D-03 at cycle   6 NSaved=   6.
 NSaved= 6 IEnMin= 6 EnMin= -7517.81131152316     IErMin= 6 ErrMin= 1.08D-03
 ErrMax= 1.08D-03  0.00D+00 EMaxC= 1.00D-01 BMatC= 2.53D-03 BMatP= 8.25D-02
 IDIUse=3 WtCom= 9.89D-01 WtEn= 1.08D-02
 Coeff-Com:  0.325D-02-0.131D-01 0.450D-01 0.185D-01 0.165D+00 0.781D+00
 Coeff-En:   0.000D+00 0.000D+00 0.000D+00 0.000D+00 0.787D-02 0.992D+00
 Coeff:      0.322D-02-0.130D-01 0.445D-01 0.183D-01 0.164D+00 0.783D+00
 Gap=     0.123 Goal=   None    Shift=    0.000
 RMSDP=1.57D-04 MaxDP=8.90D-03 DE=-7.40D-02 OVMax= 1.90D-02

 Cycle   7  Pass 1  IDiag  1:
 RMSU=  1.03D-04    CP:  1.00D+00  8.55D-01  3.56D-01  2.92D-01  4.62D-01
                    CP:  7.71D-01
 E= -7517.81339439588     Delta-E=       -0.002082872721 Rises=F Damp=F
 DIIS: error= 5.89D-04 at cycle   7 NSaved=   7.
 NSaved= 7 IEnMin= 7 EnMin= -7517.81339439588     IErMin= 7 ErrMin= 5.89D-04
 ErrMax= 5.89D-04  0.00D+00 EMaxC= 1.00D-01 BMatC= 5.87D-04 BMatP= 2.53D-03
 IDIUse=3 WtCom= 9.94D-01 WtEn= 5.89D-03
 Coeff-Com:  0.133D-02-0.722D-02 0.145D-01-0.123D-02 0.938D-01 0.540D+00
 Coeff-Com:  0.359D+00
 Coeff-En:   0.000D+00 0.000D+00 0.000D+00 0.000D+00 0.000D+00 0.191D+00
 Coeff-En:   0.809D+00
 Coeff:      0.132D-02-0.718D-02 0.144D-01-0.123D-02 0.932D-01 0.538D+00
 Coeff:      0.362D+00
 Gap=     0.123 Goal=   None    Shift=    0.000
 RMSDP=8.24D-05 MaxDP=3.95D-03 DE=-2.08D-03 OVMax= 8.86D-03

 Cycle   8  Pass 1  IDiag  1:
 RMSU=  4.06D-05    CP:  1.00D+00  8.57D-01  3.50D-01  2.81D-01  4.59D-01
                    CP:  8.61D-01  3.53D-01
 E= -7517.81399901795     Delta-E=       -0.000604622066 Rises=F Damp=F
 DIIS: error= 2.81D-04 at cycle   8 NSaved=   8.
 NSaved= 8 IEnMin= 8 EnMin= -7517.81399901795     IErMin= 8 ErrMin= 2.81D-04
 ErrMax= 2.81D-04  0.00D+00 EMaxC= 1.00D-01 BMatC= 8.76D-05 BMatP= 5.87D-04
 IDIUse=3 WtCom= 9.97D-01 WtEn= 2.81D-03
 Coeff-Com:  0.333D-03-0.234D-02 0.319D-02-0.491D-02 0.408D-01 0.275D+00
 Coeff-Com:  0.268D+00 0.419D+00
 Coeff-En:   0.000D+00 0.000D+00 0.000D+00 0.000D+00 0.000D+00 0.000D+00
 Coeff-En:   0.169D+00 0.831D+00
 Coeff:      0.332D-03-0.234D-02 0.318D-02-0.490D-02 0.407D-01 0.274D+00
 Coeff:      0.268D+00 0.421D+00
 Gap=     0.123 Goal=   None    Shift=    0.000
 RMSDP=3.49D-05 MaxDP=1.83D-03 DE=-6.05D-04 OVMax= 3.78D-03

 Cycle   9  Pass 1  IDiag  1:
 RMSU=  1.65D-05    CP:  1.00D+00  8.57D-01  3.48D-01  2.81D-01  4.59D-01
                    CP:  8.69D-01  4.74D-01  3.19D-01
 E= -7517.81409524846     Delta-E=       -0.000096230506 Rises=F Damp=F
 DIIS: error= 9.57D-05 at cycle   9 NSaved=   9.
 NSaved= 9 IEnMin= 9 EnMin= -7517.81409524846     IErMin= 9 ErrMin= 9.57D-05
 ErrMax= 9.57D-05  0.00D+00 EMaxC= 1.00D-01 BMatC= 1.72D-05 BMatP= 8.76D-05
 IDIUse=1 WtCom= 1.00D+00 WtEn= 0.00D+00
 Coeff-Com: -0.264D-04-0.114D-03-0.978D-04-0.414D-02 0.142D-01 0.115D+00
 Coeff-Com:  0.131D+00 0.312D+00 0.432D+00
 Coeff:     -0.264D-04-0.114D-03-0.978D-04-0.414D-02 0.142D-01 0.115D+00
 Coeff:      0.131D+00 0.312D+00 0.432D+00
 Gap=     0.123 Goal=   None    Shift=    0.000
 RMSDP=1.24D-05 MaxDP=1.02D-03 DE=-9.62D-05 OVMax= 1.38D-03

 Cycle  10  Pass 1  IDiag  1:
 RMSU=  4.43D-06    CP:  1.00D+00  8.56D-01  3.48D-01  2.82D-01  4.60D-01
                    CP:  8.70D-01  4.70D-01  5.38D-01  5.98D-01
 E= -7517.81411565373     Delta-E=       -0.000020405274 Rises=F Damp=F
 DIIS: error= 1.92D-05 at cycle  10 NSaved=  10.
 NSaved=10 IEnMin=10 EnMin= -7517.81411565373     IErMin=10 ErrMin= 1.92D-05
 ErrMax= 1.92D-05  0.00D+00 EMaxC= 1.00D-01 BMatC= 6.89D-07 BMatP= 1.72D-05
 IDIUse=1 WtCom= 1.00D+00 WtEn= 0.00D+00
 Coeff-Com:  0.152D-04-0.725D-04 0.207D-05-0.132D-02 0.153D-02 0.164D-01
 Coeff-Com:  0.248D-01 0.874D-01 0.195D+00 0.677D+00
 Coeff:      0.152D-04-0.725D-04 0.207D-05-0.132D-02 0.153D-02 0.164D-01
 Coeff:      0.248D-01 0.874D-01 0.195D+00 0.677D+00
 Gap=     0.123 Goal=   None    Shift=    0.000
 RMSDP=2.70D-06 MaxDP=2.11D-04 DE=-2.04D-05 OVMax= 3.49D-04

 Cycle  11  Pass 1  IDiag  1:
 RMSU=  1.99D-06    CP:  1.00D+00  8.56D-01  3.48D-01  2.82D-01  4.61D-01
                    CP:  8.72D-01  4.74D-01  5.34D-01  6.65D-01  8.67D-01
 E= -7517.81411619536     Delta-E=       -0.000000541630 Rises=F Damp=F
 DIIS: error= 1.13D-05 at cycle  11 NSaved=  11.
 NSaved=11 IEnMin=11 EnMin= -7517.81411619536     IErMin=11 ErrMin= 1.13D-05
 ErrMax= 1.13D-05  0.00D+00 EMaxC= 1.00D-01 BMatC= 1.69D-07 BMatP= 6.89D-07
 IDIUse=1 WtCom= 1.00D+00 WtEn= 0.00D+00
 Coeff-Com:  0.196D-04-0.526D-04 0.837D-04-0.465D-03-0.527D-03-0.160D-02
 Coeff-Com:  0.205D-02 0.233D-01 0.821D-01 0.467D+00 0.428D+00
 Coeff:      0.196D-04-0.526D-04 0.837D-04-0.465D-03-0.527D-03-0.160D-02
 Coeff:      0.205D-02 0.233D-01 0.821D-01 0.467D+00 0.428D+00
 Gap=     0.123 Goal=   None    Shift=    0.000
 RMSDP=1.59D-06 MaxDP=7.61D-05 DE=-5.42D-07 OVMax= 1.89D-04

 Cycle  12  Pass 1  IDiag  1:
 RMSU=  1.08D-06    CP:  1.00D+00  8.56D-01  3.48D-01  2.82D-01  4.61D-01
                    CP:  8.72D-01  4.75D-01  5.36D-01  6.72D-01  9.55D-01
                    CP:  4.65D-01
 E= -7517.81411632512     Delta-E=       -0.000000129765 Rises=F Damp=F
 DIIS: error= 6.75D-06 at cycle  12 NSaved=  12.
 NSaved=12 IEnMin=12 EnMin= -7517.81411632512     IErMin=12 ErrMin= 6.75D-06
 ErrMax= 6.75D-06  0.00D+00 EMaxC= 1.00D-01 BMatC= 6.81D-08 BMatP= 1.69D-07
 IDIUse=1 WtCom= 1.00D+00 WtEn= 0.00D+00
 Coeff-Com:  0.183D-04-0.410D-04 0.677D-04-0.673D-04-0.866D-03-0.551D-02
 Coeff-Com: -0.450D-02-0.244D-02 0.183D-01 0.222D+00 0.382D+00 0.390D+00
 Coeff:      0.183D-04-0.410D-04 0.677D-04-0.673D-04-0.866D-03-0.551D-02
 Coeff:     -0.450D-02-0.244D-02 0.183D-01 0.222D+00 0.382D+00 0.390D+00
 Gap=     0.123 Goal=   None    Shift=    0.000
 RMSDP=7.71D-07 MaxDP=3.02D-05 DE=-1.30D-07 OVMax= 9.91D-05

 Cycle  13  Pass 1  IDiag  1:
 RMSU=  3.69D-07    CP:  1.00D+00  8.56D-01  3.48D-01  2.82D-01  4.61D-01
                    CP:  8.73D-01  4.75D-01  5.38D-01  6.80D-01  9.73D-01
                    CP:  6.30D-01  4.89D-01
 E= -7517.81411641295     Delta-E=       -0.000000087828 Rises=F Damp=F
 DIIS: error= 1.22D-06 at cycle  13 NSaved=  13.
 NSaved=13 IEnMin=13 EnMin= -7517.81411641295     IErMin=13 ErrMin= 1.22D-06
 ErrMax= 1.22D-06  0.00D+00 EMaxC= 1.00D-01 BMatC= 3.32D-09 BMatP= 6.81D-08
 IDIUse=1 WtCom= 1.00D+00 WtEn= 0.00D+00
 Coeff-Com:  0.129D-04-0.299D-04 0.863D-05 0.259D-04-0.537D-03-0.349D-02
 Coeff-Com: -0.326D-02-0.486D-02-0.486D-03 0.727D-01 0.178D+00 0.235D+00
 Coeff-Com:  0.526D+00
 Coeff:      0.129D-04-0.299D-04 0.863D-05 0.259D-04-0.537D-03-0.349D-02
 Coeff:     -0.326D-02-0.486D-02-0.486D-03 0.727D-01 0.178D+00 0.235D+00
 Coeff:      0.526D+00
 Gap=     0.123 Goal=   None    Shift=    0.000
 RMSDP=2.18D-07 MaxDP=1.53D-05 DE=-8.78D-08 OVMax= 2.32D-05

 Cycle  14  Pass 1  IDiag  1:
 RMSU=  1.18D-07    CP:  1.00D+00  8.56D-01  3.48D-01  2.82D-01  4.61D-01
                    CP:  8.73D-01  4.75D-01  5.40D-01  6.80D-01  9.79D-01
                    CP:  6.67D-01  5.71D-01  7.16D-01
 E= -7517.81411641687     Delta-E=       -0.000000003922 Rises=F Damp=F
 DIIS: error= 4.91D-07 at cycle  14 NSaved=  14.
 NSaved=14 IEnMin=14 EnMin= -7517.81411641687     IErMin=14 ErrMin= 4.91D-07
 ErrMax= 4.91D-07  0.00D+00 EMaxC= 1.00D-01 BMatC= 3.38D-10 BMatP= 3.32D-09
 IDIUse=1 WtCom= 1.00D+00 WtEn= 0.00D+00
 Coeff-Com:  0.351D-05-0.665D-05-0.113D-04 0.233D-04-0.105D-03-0.641D-03
 Coeff-Com: -0.819D-03-0.233D-02-0.404D-02-0.480D-02 0.240D-01 0.563D-01
 Coeff-Com:  0.271D+00 0.661D+00
 Coeff:      0.351D-05-0.665D-05-0.113D-04 0.233D-04-0.105D-03-0.641D-03
 Coeff:     -0.819D-03-0.233D-02-0.404D-02-0.480D-02 0.240D-01 0.563D-01
 Coeff:      0.271D+00 0.661D+00
 Gap=     0.123 Goal=   None    Shift=    0.000
 RMSDP=7.92D-08 MaxDP=4.95D-06 DE=-3.92D-09 OVMax= 1.16D-05

 Cycle  15  Pass 1  IDiag  1:
 RMSU=  4.38D-08    CP:  1.00D+00  8.55D-01  3.48D-01  2.82D-01  4.61D-01
                    CP:  8.73D-01  4.76D-01  5.40D-01  6.81D-01  9.84D-01
                    CP:  6.70D-01  5.78D-01  8.09D-01  8.95D-01
 E= -7517.81411641727     Delta-E=       -0.000000000398 Rises=F Damp=F
 DIIS: error= 1.35D-07 at cycle  15 NSaved=  15.
 NSaved=15 IEnMin=15 EnMin= -7517.81411641727     IErMin=15 ErrMin= 1.35D-07
 ErrMax= 1.35D-07  0.00D+00 EMaxC= 1.00D-01 BMatC= 3.09D-11 BMatP= 3.38D-10
 IDIUse=1 WtCom= 1.00D+00 WtEn= 0.00D+00
 Coeff-Com: -0.179D-06 0.800D-06-0.488D-05 0.554D-05 0.117D-04 0.924D-04
 Coeff-Com: -0.461D-04-0.253D-03-0.933D-03-0.773D-02-0.105D-01-0.459D-02
 Coeff-Com:  0.430D-01 0.262D+00 0.719D+00
 Coeff:     -0.179D-06 0.800D-06-0.488D-05 0.554D-05 0.117D-04 0.924D-04
 Coeff:     -0.461D-04-0.253D-03-0.933D-03-0.773D-02-0.105D-01-0.459D-02
 Coeff:      0.430D-01 0.262D+00 0.719D+00
 Gap=     0.123 Goal=   None    Shift=    0.000
 RMSDP=2.66D-08 MaxDP=1.45D-06 DE=-3.98D-10 OVMax= 3.49D-06

 Cycle  16  Pass 1  IDiag  1:
 RMSU=  1.25D-08    CP:  1.00D+00  8.55D-01  3.48D-01  2.82D-01  4.61D-01
                    CP:  8.73D-01  4.76D-01  5.40D-01  6.81D-01  9.85D-01
                    CP:  6.72D-01  5.86D-01  8.26D-01  9.71D-01  9.41D-01
 E= -7517.81411641789     Delta-E=       -0.000000000615 Rises=F Damp=F
 DIIS: error= 3.19D-08 at cycle  16 NSaved=  16.
 NSaved=16 IEnMin=16 EnMin= -7517.81411641789     IErMin=16 ErrMin= 3.19D-08
 ErrMax= 3.19D-08  0.00D+00 EMaxC= 1.00D-01 BMatC= 2.44D-12 BMatP= 3.09D-11
 IDIUse=1 WtCom= 1.00D+00 WtEn= 0.00D+00
 Coeff-Com: -0.428D-06 0.106D-05-0.110D-05 0.375D-06 0.125D-04 0.917D-04
 Coeff-Com:  0.510D-04 0.627D-04-0.133D-03-0.268D-02-0.574D-02-0.655D-02
 Coeff-Com: -0.344D-02 0.554D-01 0.284D+00 0.679D+00
 Coeff:     -0.428D-06 0.106D-05-0.110D-05 0.375D-06 0.125D-04 0.917D-04
 Coeff:      0.510D-04 0.627D-04-0.133D-03-0.268D-02-0.574D-02-0.655D-02
 Coeff:     -0.344D-02 0.554D-01 0.284D+00 0.679D+00
 Gap=     0.123 Goal=   None    Shift=    0.000
 RMSDP=7.97D-09 MaxDP=4.13D-07 DE=-6.15D-10 OVMax= 1.20D-06

 SCF Done:  E(RPBE1PBE) =  -7517.81411642     A.U. after   16 cycles
            NFock= 16  Conv=0.80D-08     -V/T= 2.1285
 KE= 6.661962817111D+03 PE=-2.465218498180D+04 EE= 6.941944036941D+03
 Leave Link  502 at Tue Mar  6 12:09:48 2018, MaxMem=   536870912 cpu:      2829.9
 (Enter /share/apps//mg09/l601.exe)
 Copying SCF densities to generalized density rwf, IOpCl= 0 IROHF=0.

 **********************************************************************

            Population analysis using the SCF density.

 **********************************************************************

 Orbital symmetries:
       Occupied  (A) (A) (A) (A) (A) (A) (A) (A) (A) (A) (A) (A)
                 (A) (A) (A) (A) (A) (A) (A) (A) (A) (A) (A) (A)
                 (A) (A) (A) (A) (A) (A) (A) (A) (A) (A) (A) (A)
                 (A) (A) (A) (A) (A) (A) (A) (A) (A) (A) (A) (A)
                 (A) (A) (A) (A) (A) (A) (A) (A) (A) (A) (A) (A)
                 (A) (A) (A) (A) (A) (A) (A) (A) (A) (A) (A) (A)
                 (A) (A) (A) (A) (A) (A) (A) (A) (A) (A) (A) (A)
                 (A) (A) (A) (A) (A) (A) (A) (A) (A) (A) (A) (A)
                 (A) (A) (A) (A) (A) (A) (A) (A) (A) (A) (A) (A)
                 (A) (A) (A) (A) (A) (A) (A) (A)
       Virtual   (A) (A) (A) (A) (A) (A) (A) (A) (A) (A) (A) (A)
                 (A) (A) (A) (A) (A) (A) (A) (A) (A) (A) (A) (A)
                 (A) (A) (A) (A) (A) (A) (A) (A) (A) (A) (A) (A)
                 (A) (A) (A) (A) (A) (A) (A) (A) (A) (A) (A) (A)
                 (A) (A) (A) (A) (A) (A) (A) (A) (A) (A) (A) (A)
                 (A) (A) (A) (A) (A) (A) (A) (A) (A) (A) (A) (A)
                 (A) (A) (A) (A) (A) (A) (A) (A) (A) (A) (A) (A)
                 (A) (A) (A) (A) (A) (A) (A) (A) (A) (A) (A) (A)
                 (A) (A) (A) (A) (A) (A) (A) (A) (A) (A) (A) (A)
                 (A) (A) (A) (A) (A) (A) (A) (A) (A) (A) (A) (A)
                 (A) (A) (A) (A) (A) (A) (A) (A) (A) (A) (A) (A)
                 (A) (A) (A) (A) (A) (A) (A) (A) (A) (A) (A) (A)
                 (A) (A) (A) (A) (A) (A) (A) (A) (A) (A) (A) (A)
                 (A) (A) (A) (A) (A) (A) (A) (A) (A) (A) (A) (A)
                 (A) (A) (A) (A) (A) (A) (A) (A) (A) (A) (A) (A)
                 (A) (A) (A) (A) (A) (A) (A) (A) (A) (A) (A) (A)
                 (A) (A) (A) (A) (A) (A) (A) (A) (A) (A) (A) (A)
                 (A) (A) (A) (A) (A) (A) (A) (A) (A) (A) (A) (A)
                 (A) (A) (A) (A) (A) (A) (A) (A) (A) (A) (A) (A)
                 (A) (A) (A) (A) (A) (A) (A) (A) (A) (A) (A) (A)
                 (A) (A) (A) (A) (A) (A) (A) (A) (A) (A) (A) (A)
                 (A) (A) (A) (A) (A) (A) (A) (A) (A) (A) (A) (A)
                 (A) (A) (A) (A) (A) (A) (A) (A) (A) (A) (A) (A)
                 (A) (A) (A) (A) (A) (A) (A) (A) (A) (A) (A) (A)
                 (A) (A) (A) (A) (A) (A) (A) (A) (A) (A) (A) (A)
                 (A) (A) (A) (A) (A) (A) (A) (A) (A) (A) (A) (A)
                 (A) (A) (A) (A) (A) (A) (A) (A) (A) (A) (A) (A)
                 (A) (A) (A) (A)
 The electronic state is 1-A.
 Alpha  occ. eigenvalues -- -399.10257-399.09539-399.09502 -49.91791 -49.91114
 Alpha  occ. eigenvalues --  -49.91111 -44.39885 -44.39845 -44.39818 -44.39188
 Alpha  occ. eigenvalues --  -44.39185 -44.39171 -44.39158 -44.39148 -44.39142
 Alpha  occ. eigenvalues --   -6.28281  -6.27624  -6.27614  -6.02230  -6.02170
 Alpha  occ. eigenvalues --   -6.00937  -6.00917  -5.13961  -5.13477  -4.43746
 Alpha  occ. eigenvalues --   -4.43611  -4.43532  -4.43066  -4.43037  -4.42972
 Alpha  occ. eigenvalues --   -4.42959  -4.42910  -4.42889  -3.74504  -3.74438
 Alpha  occ. eigenvalues --   -3.74383  -3.74301  -3.74230  -3.74190  -3.73256
 Alpha  occ. eigenvalues --   -3.73254  -3.73091  -3.73053  -3.72870  -3.72840
 Alpha  occ. eigenvalues --   -3.47192  -3.47044  -3.46992  -3.46680  -3.46595
 Alpha  occ. eigenvalues --   -3.46503  -1.23169  -1.23156  -1.23084  -1.23004
 Alpha  occ. eigenvalues --   -1.22968  -1.22507  -1.22494  -1.22491  -1.22476
 Alpha  occ. eigenvalues --   -1.22455  -1.22414  -1.22342  -1.22338  -1.22336
 Alpha  occ. eigenvalues --   -1.22325  -1.08412  -1.08278  -1.08171  -1.08089
 Alpha  occ. eigenvalues --   -1.08033  -1.08005  -1.07919  -1.07849  -1.07828
 Alpha  occ. eigenvalues --   -1.07766  -1.06880  -1.06871  -1.06791  -1.06786
 Alpha  occ. eigenvalues --   -1.06681  -1.06663  -1.06525  -1.06475  -1.06465
 Alpha  occ. eigenvalues --   -1.06420  -1.03343  -1.03316  -1.03278  -1.03170
 Alpha  occ. eigenvalues --   -1.03129  -1.02867  -1.02841  -1.02772  -1.02682
 Alpha  occ. eigenvalues --   -1.02651  -0.66441  -0.62714  -0.58663  -0.57674
 Alpha  occ. eigenvalues --   -0.49015  -0.47482  -0.44761  -0.42500  -0.40661
 Alpha  occ. eigenvalues --   -0.29037  -0.27184  -0.26649  -0.26033  -0.24938
 Alpha  occ. eigenvalues --   -0.23973  -0.23913  -0.22614  -0.21716  -0.21251
 Alpha  occ. eigenvalues --   -0.19861
 Alpha virt. eigenvalues --   -0.07602  -0.07157  -0.06703  -0.06558  -0.05946
 Alpha virt. eigenvalues --   -0.05863  -0.04992  -0.04666  -0.04475  -0.03974
 Alpha virt. eigenvalues --   -0.03460  -0.02585  -0.01232   0.03787   0.04589
 Alpha virt. eigenvalues --    0.05051   0.06409   0.07968   0.08604   0.08898
 Alpha virt. eigenvalues --    0.09358   0.09467   0.10083   0.10359   0.10596
 Alpha virt. eigenvalues --    0.11108   0.11524   0.11919   0.12304   0.12827
 Alpha virt. eigenvalues --    0.13419   0.15568   0.15918   0.16669   0.17138
 Alpha virt. eigenvalues --    0.17859   0.19107   0.19559   0.20024   0.20658
 Alpha virt. eigenvalues --    0.20809   0.21717   0.22133   0.23219   0.23929
 Alpha virt. eigenvalues --    0.24397   0.25648   0.26400   0.27755   0.29108
 Alpha virt. eigenvalues --    0.29950   0.30211   0.30466   0.31052   0.31450
 Alpha virt. eigenvalues --    0.31622   0.31810   0.32528   0.32909   0.33679
 Alpha virt. eigenvalues --    0.34281   0.34635   0.35800   0.36389   0.37262
 Alpha virt. eigenvalues --    0.38902   0.40142   0.40377   0.41339   0.41708
 Alpha virt. eigenvalues --    0.42507   0.42927   0.44023   0.44305   0.44995
 Alpha virt. eigenvalues --    0.45397   0.46406   0.46443   0.47239   0.48309
 Alpha virt. eigenvalues --    0.48585   0.49606   0.50215   0.50606   0.51378
 Alpha virt. eigenvalues --    0.53095   0.53252   0.54312   0.55173   0.56033
 Alpha virt. eigenvalues --    0.56673   0.56917   0.56970   0.58682   0.59267
 Alpha virt. eigenvalues --    0.60360   0.61195   0.61492   0.61948   0.62342
 Alpha virt. eigenvalues --    0.63091   0.63602   0.64186   0.64912   0.65127
 Alpha virt. eigenvalues --    0.65840   0.67749   0.67862   0.68314   0.69488
 Alpha virt. eigenvalues --    0.70136   0.71856   0.72473   0.73878   0.74709
 Alpha virt. eigenvalues --    0.75932   0.76310   0.76688   0.77327   0.77627
 Alpha virt. eigenvalues --    0.79913   0.80046   0.80292   0.81283   0.82807
 Alpha virt. eigenvalues --    0.84015   0.84124   0.84534   0.85428   0.86353
 Alpha virt. eigenvalues --    0.87043   0.87707   0.88228   0.88909   0.89828
 Alpha virt. eigenvalues --    0.90619   0.90897   0.91854   0.92393   0.92994
 Alpha virt. eigenvalues --    0.93269   0.95348   0.96003   0.96896   0.96965
 Alpha virt. eigenvalues --    0.98039   0.98545   0.98998   0.99942   1.01554
 Alpha virt. eigenvalues --    1.02730   1.03946   1.04979   1.06871   1.07630
 Alpha virt. eigenvalues --    1.08344   1.09009   1.09546   1.11126   1.12455
 Alpha virt. eigenvalues --    1.13447   1.14120   1.14207   1.15946   1.17100
 Alpha virt. eigenvalues --    1.17517   1.18663   1.19273   1.20048   1.20181
 Alpha virt. eigenvalues --    1.20804   1.20907   1.21427   1.21728   1.22192
 Alpha virt. eigenvalues --    1.22508   1.23185   1.23611   1.24333   1.24592
 Alpha virt. eigenvalues --    1.25117   1.25527   1.25826   1.26896   1.27290
 Alpha virt. eigenvalues --    1.27814   1.28171   1.28361   1.28845   1.29696
 Alpha virt. eigenvalues --    1.30798   1.31250   1.31400   1.32186   1.33914
 Alpha virt. eigenvalues --    1.34873   1.35954   1.36231   1.38322   1.39310
 Alpha virt. eigenvalues --    1.40041   1.40290   1.42488   1.42707   1.43618
 Alpha virt. eigenvalues --    1.44971   1.45718   1.46281   1.47641   1.47889
 Alpha virt. eigenvalues --    1.48971   1.50773   1.51198   1.52323   1.53273
 Alpha virt. eigenvalues --    1.54122   1.55019   1.56044   1.58031   1.61300
 Alpha virt. eigenvalues --    1.63642   1.68598   1.70344   2.05196   2.09989
 Alpha virt. eigenvalues --    2.10431   2.12765   2.14765   2.15298   2.16150
 Alpha virt. eigenvalues --    2.17621   2.18467   2.19341   2.20271   2.22284
 Alpha virt. eigenvalues --    2.22505   2.24004   2.24383   2.25819   2.26046
 Alpha virt. eigenvalues --    2.27541   2.28058   2.28712   2.29199   2.30899
 Alpha virt. eigenvalues --    2.33820   2.35062   2.35781   2.37467   2.38721
 Alpha virt. eigenvalues --    2.40072   2.40313   2.42162   2.43716   2.45784
 Alpha virt. eigenvalues --    2.47756   2.49827   2.50990   2.52423   2.55709
 Alpha virt. eigenvalues --    2.59590   2.60289   2.61399   2.63522   2.66304
 Alpha virt. eigenvalues --    2.68930   2.69868   2.71963   2.73082   2.74325
 Alpha virt. eigenvalues --    2.76572   2.78165   2.79050   2.79520   2.81555
 Alpha virt. eigenvalues --    2.82661   2.84591   2.86312   2.87929   2.94429
 Alpha virt. eigenvalues --    3.19170   3.23068   3.34305   3.36725   3.39379
 Alpha virt. eigenvalues --    3.42611   3.93846   3.96620   3.97774   3.98599
 Alpha virt. eigenvalues --    4.00364   4.03286   4.05006   4.07670   4.11503
 Alpha virt. eigenvalues --    5.28585   5.32323   5.35693  35.38835  35.43230
 Alpha virt. eigenvalues --   35.44029  35.44387  35.45949  35.47775  35.50364
 Alpha virt. eigenvalues --   35.53633  35.54107  35.56609  35.59701  35.62975
 Alpha virt. eigenvalues --   35.93423  35.95482  35.97388  36.06058  36.19141
 Alpha virt. eigenvalues --   36.21347  36.92490  36.97412  37.01257  37.04209
 Alpha virt. eigenvalues --   37.08791  37.12613 113.57147 113.58223 120.23493
 Alpha virt. eigenvalues --  120.23916 120.24725 120.25836
          Condensed to atoms (all electrons):
               1          2          3          4          5          6
     1  Bi  22.257575   0.180884   0.119327   0.075476  -0.031736  -0.019082
     2  Ge   0.180884  31.618542   0.147823   0.128144   0.176821  -0.011220
     3  Ge   0.119327   0.147823  31.553015  -0.023209   0.063865  -0.016383
     4  Sn   0.075476   0.128144  -0.023209  21.378843   0.120691   0.116105
     5  Bi  -0.031736   0.176821   0.063865   0.120691  22.237565   0.142248
     6  Ge  -0.019082  -0.011220  -0.016383   0.116105   0.142248  31.575281
     7  Bi   0.159178  -0.014812  -0.020157   0.145991  -0.023003   0.196456
     8  Bi  -0.021706  -0.017143   0.133245  -0.020347   0.169243   0.174699
     9  Sn   0.144336  -0.013945   0.129825  -0.014345  -0.017501  -0.006245
               7          8          9
     1  Bi   0.159178  -0.021706   0.144336
     2  Ge  -0.014812  -0.017143  -0.013945
     3  Ge  -0.020157   0.133245   0.129825
     4  Sn   0.145991  -0.020347  -0.014345
     5  Bi  -0.023003   0.169243  -0.017501
     6  Ge   0.196456   0.174699  -0.006245
     7  Bi  22.421529  -0.025604   0.161901
     8  Bi  -0.025604  22.404152   0.184675
     9  Sn   0.161901   0.184675  21.404502
 Mulliken charges:
               1
     1  Bi   0.135748
     2  Ge  -0.195093
     3  Ge  -0.087352
     4  Sn   0.092650
     5  Bi   0.161805
     6  Ge  -0.151860
     7  Bi  -0.001480
     8  Bi   0.018786
     9  Sn   0.026795
 Sum of Mulliken charges =   0.00000
 Mulliken charges with hydrogens summed into heavy atoms:
               1
     1  Bi   0.135748
     2  Ge  -0.195093
     3  Ge  -0.087352
     4  Sn   0.092650
     5  Bi   0.161805
     6  Ge  -0.151860
     7  Bi  -0.001480
     8  Bi   0.018786
     9  Sn   0.026795
 Electronic spatial extent (au):  <R**2>=           5972.4896
 Charge=              0.0000 electrons
 Dipole moment (field-independent basis, Debye):
    X=              0.3259    Y=              0.1069    Z=              0.1819  Tot=              0.3883
 Quadrupole moment (field-independent basis, Debye-Ang):
   XX=           -214.6417   YY=           -216.4146   ZZ=           -222.8629
   XY=              0.6017   XZ=             -0.7925   YZ=             -0.0045
 Traceless Quadrupole moment (field-independent basis, Debye-Ang):
   XX=              3.3314   YY=              1.5585   ZZ=             -4.8898
   XY=              0.6017   XZ=             -0.7925   YZ=             -0.0045
 Octapole moment (field-independent basis, Debye-Ang**2):
  XXX=              0.5521  YYY=             37.1060  ZZZ=             22.7472  XYY=             -6.3941
  XXY=              4.8698  XXZ=              4.4629  XZZ=             10.2721  YZZ=             11.7851
  YYZ=             14.6252  XYZ=              3.3762
 Hexadecapole moment (field-independent basis, Debye-Ang**3):
 XXXX=          -3416.5947 YYYY=          -3343.8566 ZZZZ=          -2876.0450 XXXY=              1.2785
 XXXZ=            -22.6174 YYYX=            -22.0553 YYYZ=             17.7828 ZZZX=              6.3664
 ZZZY=             47.2971 XXYY=          -1110.5126 XXZZ=          -1045.5326 YYZZ=          -1046.3923
 XXYZ=             22.8340 YYXZ=              0.4828 ZZXY=             -6.4436
 N-N= 3.530464011333D+03 E-N=-2.465218499256D+04  KE= 6.661962817111D+03
 No NMR shielding tensors so no spin-rotation constants.
 Leave Link  601 at Tue Mar  6 12:09:52 2018, MaxMem=   536870912 cpu:         1.1
 (Enter /share/apps//mg09/l701.exe)
 Compute integral first derivatives.
 ... and contract with generalized density number  0.
   1 Symmetry operations used in ECPInt.
 ECPInt:  NShTT=   10440 NPrTT=   41973 LenC2=    9656 LenP2D=   27477.
 LDataN:  DoStor=T MaxTD1= 9 Len=  602
 Leave Link  701 at Tue Mar  6 12:10:11 2018, MaxMem=   536870912 cpu:        63.3
 (Enter /share/apps//mg09/l702.exe)
 L702 exits ... SP integral derivatives will be done elsewhere.
 Leave Link  702 at Tue Mar  6 12:10:11 2018, MaxMem=   536870912 cpu:         0.1
 (Enter /share/apps//mg09/l703.exe)
 Compute integral first derivatives, UseDBF=F ICtDFT=           0.
 Integral derivatives from FoFJK, PRISM(SPDF).
 Calling FoFJK, ICntrl=      2127 FMM=F ISym2X=0 I1Cent= 0 IOpClX= 0 NMat=1 NMatS=1 NMatT=0.
 FoFJK:  IHMeth= 1 ICntrl=    2127 DoSepK=F KAlg= 0 I1Cent=   0 FoldK=F
 IRaf=         0 NMat=   1 IRICut=       1 DoRegI=T DoRafI=F ISym2E= 0.
 FoFCou: FMM=F IPFlag=           0 FMFlag=      100000 FMFlg1=         800
         NFxFlg=           0 DoJE=F BraDBF=F KetDBF=F FulRan=T
         wScrn=  0.000000 ICntrl=    2127 IOpCl=  0 I1Cent=           0 NGrid=           0
         NMat0=    1 NMatS0=      1 NMatT0=    0 NMatD0=    1 NMtDS0=    0 NMtDT0=    0
 Symmetry not used in FoFCou.
 Defaulting to unpruned grid for atomic number  83.
 Defaulting to unpruned grid for atomic number  83.
 Defaulting to unpruned grid for atomic number  83.
 Defaulting to unpruned grid for atomic number  83.
 Leave Link  703 at Tue Mar  6 12:13:27 2018, MaxMem=   536870912 cpu:       773.6
 (Enter /share/apps//mg09/l716.exe)
 Dipole        = 1.28219603D-01 4.20754206D-02 7.15731421D-02
 ***** Axes restored to original set *****
 -------------------------------------------------------------------
 Center     Atomic                   Forces (Hartrees/Bohr)
 Number     Number              X              Y              Z
 -------------------------------------------------------------------
      1       83           0.010163451   -0.000751902    0.002683784
      2       32          -0.000357895   -0.012996454    0.007347793
      3       32          -0.005778647    0.003869097    0.011154872
      4       50           0.004871365   -0.009623351   -0.006265939
      5       83          -0.010008868   -0.003439739   -0.000794424
      6       32          -0.004106550    0.003558939   -0.011228156
      7       83           0.007369452    0.002448040   -0.003628333
      8       83          -0.006465471    0.006219292    0.000057658
      9       50           0.004313163    0.010716078    0.000672746
 -------------------------------------------------------------------
 Cartesian Forces:  Max     0.012996454 RMS     0.006718047
 Force constants in Cartesian coordinates: 
                1             2             3             4             5 
      1  0.218912D+00
      2  0.152422D-02  0.160242D+00
      3  0.264908D-01 -0.179433D-01  0.157601D+00
      4 -0.634346D-01 -0.450418D-01  0.113908D-01  0.143874D+00
      5 -0.101845D-01 -0.493267D-01  0.164310D-01  0.932672D-02  0.181785D+00
      6 -0.115707D-01  0.233176D-02 -0.283010D-01  0.840621D-02 -0.378344D-01
      7 -0.578015D-01  0.151525D-01  0.279795D-01 -0.251789D-01  0.901263D-03
      8  0.832717D-02 -0.212970D-01 -0.747172D-02  0.148061D-01 -0.601691D-01
      9 -0.856674D-02  0.781454D-03 -0.371643D-01  0.304988D-02  0.151574D-01
     10 -0.250218D-01 -0.103946D-01 -0.212280D-01 -0.186713D-01  0.776521D-02
     11  0.125774D-01 -0.260262D-01 -0.350305D-02 -0.446034D-02 -0.312930D-01
     12  0.115982D-02 -0.193406D-01 -0.287020D-01  0.141449D-01 -0.202862D-01
     13 -0.870885D-02  0.274390D-03 -0.797281D-02 -0.588099D-01 -0.717137D-02
     14 -0.582499D-02  0.572702D-02 -0.177485D-02  0.259184D-01 -0.370670D-01
     15 -0.271536D-02  0.135345D-02  0.546716D-02 -0.380474D-01  0.842363D-02
     16  0.543561D-03  0.249972D-02 -0.950742D-03  0.786232D-02  0.130526D-02
     17  0.124692D-02  0.435729D-02 -0.880487D-03 -0.153295D-02  0.113046D-02
     18 -0.983271D-02  0.303263D-02 -0.184794D-02 -0.132211D-02  0.817328D-02
     19 -0.293531D-01  0.502042D-02 -0.223802D-01  0.273325D-02 -0.386985D-02
     20 -0.884426D-02 -0.234112D-01  0.144766D-01  0.112956D-02  0.120785D-02
     21  0.128158D-01  0.163579D-01 -0.532456D-01  0.283195D-02  0.706063D-02
     22 -0.263799D-02  0.253846D-02 -0.645900D-02  0.341198D-02  0.662125D-02
     23  0.722476D-02  0.259172D-02  0.341894D-02  0.226103D-02 -0.195590D-02
     24  0.971367D-04 -0.189822D-02  0.398597D-02  0.219552D-02  0.405542D-02
     25 -0.324978D-01  0.284267D-01 -0.687038D-02  0.821326D-02 -0.469403D-02
     26 -0.604676D-02 -0.528571D-01 -0.275310D-02 -0.240670D-02 -0.431174D-02
     27 -0.787810D-02  0.153249D-01 -0.177930D-01 -0.264969D-02 -0.118073D-02
                6             7             8             9            10 
      6  0.151579D+00
      7  0.873709D-02  0.152796D+00
      8 -0.283012D-01 -0.132737D-01  0.162153D+00
      9 -0.397595D-01 -0.243681D-01  0.790479D-02  0.220188D+00
     10  0.686008D-02  0.601737D-02  0.214059D-02  0.518799D-02  0.126431D+00
     11  0.209250D-01  0.438408D-02  0.104857D-02 -0.105564D-01 -0.175300D-01
     12 -0.487477D-01  0.407590D-02 -0.288396D-02 -0.333674D-02 -0.205744D-01
     13 -0.135824D-01 -0.285202D-01 -0.437280D-02  0.110958D-01 -0.495143D-01
     14  0.255084D-01 -0.163244D-01 -0.219579D-01 -0.443298D-02  0.214798D-01
     15 -0.458219D-01 -0.188368D-01 -0.172290D-01 -0.384697D-01  0.205028D-01
     16 -0.377352D-02  0.431149D-02 -0.351136D-03 -0.495681D-02 -0.218258D-01
     17  0.111514D-02 -0.212809D-03  0.599148D-02  0.368201D-03  0.191566D-01
     18 -0.254227D-02  0.490062D-02 -0.181138D-03 -0.659087D-02  0.652608D-02
     19  0.638716D-02  0.100161D-02 -0.336357D-03  0.950607D-02 -0.233583D-01
     20  0.448101D-02 -0.183518D-02  0.557471D-02  0.188553D-02 -0.276161D-01
     21  0.250952D-02  0.657485D-03 -0.130253D-02 -0.296576D-02  0.295791D-02
     22 -0.676993D-03 -0.260357D-01  0.105279D-01  0.330561D-02  0.187316D-02
     23  0.664334D-02  0.141025D-01 -0.347623D-01 -0.316612D-03  0.128160D-02
     24  0.650375D-02 -0.249962D-01  0.272358D-01 -0.571890D-01 -0.163604D-02
     25 -0.786933D-03 -0.265898D-01 -0.174678D-01  0.574635D-02  0.406988D-02
     26  0.513090D-02 -0.289438D-02 -0.365813D-01 -0.107914D-01  0.371697D-02
     27  0.457969D-02  0.218506D-01  0.222290D-01 -0.347123D-01  0.140353D-02
               11            12            13            14            15 
     11  0.186107D+00
     12  0.303658D-01  0.148239D+00
     13 -0.117522D-01 -0.137370D-03  0.219531D+00
     14 -0.294624D-01 -0.112986D-01  0.282245D-01  0.177437D+00
     15 -0.484299D-02 -0.213219D-01  0.149801D-01 -0.168645D-01  0.157287D+00
     16  0.115314D-01 -0.111599D-01 -0.410554D-01 -0.205064D-01  0.278315D-01
     17 -0.394934D-01  0.209636D-01 -0.811327D-02 -0.333553D-01  0.309031D-01
     18 -0.126755D-01 -0.302093D-01 -0.477838D-02  0.127829D-01 -0.484950D-01
     19  0.121693D-02  0.116446D-01 -0.319979D-02 -0.630750D-02 -0.373126D-03
     20 -0.554066D-01  0.118569D-01 -0.291252D-02  0.342357D-02 -0.199782D-02
     21 -0.142439D-01 -0.253544D-01  0.715548D-02  0.268566D-02  0.395202D-02
     22  0.818147D-02  0.308830D-02 -0.303370D-01 -0.248275D-01 -0.520686D-02
     23 -0.181764D-02 -0.506714D-02  0.148311D-01 -0.638508D-01  0.612815D-03
     24 -0.121093D-02  0.516031D-02 -0.370006D-02 -0.274528D-02 -0.173350D-01
     25 -0.414871D-02 -0.224191D-02  0.614028D-03 -0.183191D-02  0.186513D-02
     26 -0.365615D-02 -0.430981D-02 -0.900781D-02 -0.894092D-03 -0.358748D-03
     27 -0.425803D-02  0.427293D-02 -0.306039D-02 -0.386083D-02  0.473727D-02
               16            17            18            19            20 
     16  0.145039D+00
     17 -0.593855D-02  0.113449D+00
     18  0.588302D-02 -0.125625D-01  0.181483D+00
     19 -0.696087D-01 -0.148541D-01  0.435254D-02  0.150996D+00
     20  0.174377D-02 -0.188569D-01  0.478634D-02  0.247162D-01  0.117274D+00
     21 -0.276756D-01 -0.408090D-02 -0.336862D-01 -0.201476D-01 -0.819564D-02
     22 -0.299902D-01  0.139273D-01 -0.796959D-03 -0.485339D-02  0.365652D-02
     23  0.131022D-01 -0.319903D-01 -0.133556D-02  0.347238D-02  0.169660D-02
     24  0.201189D-01 -0.328688D-01 -0.545673D-01  0.472844D-02  0.217630D-02
     25  0.472365D-02 -0.367913D-02 -0.493211D-02 -0.243579D-01  0.996199D-02
     26 -0.338631D-02 -0.123233D-02 -0.202049D-02 -0.905808D-02 -0.315018D-01
     27 -0.531689D-02 -0.295738D-02 -0.354456D-02  0.628211D-02 -0.294693D-01
               21            22            23            24            25 
     21  0.140864D+00
     22  0.555210D-02  0.143736D+00
     23  0.200146D-02 -0.333787D-01  0.158623D+00
     24  0.373924D-02  0.129858D-01  0.516639D-02  0.127842D+00
     25  0.158525D-01 -0.551671D-01 -0.228969D-01 -0.979351D-02  0.120992D+00
     26 -0.282723D-03  0.127533D-01 -0.285347D-01  0.893391D-04  0.163298D-01
     27 -0.358127D-01 -0.117920D-01 -0.111236D-01 -0.181400D-01  0.116086D-02
               26            27 
     26  0.159569D+00
     27  0.152960D-01  0.964127D-01
 Leave Link  716 at Tue Mar  6 12:13:31 2018, MaxMem=   536870912 cpu:         0.1
 (Enter /share/apps//mg09/l103.exe)

 GradGradGradGradGradGradGradGradGradGradGradGradGradGradGradGradGradGrad
 Berny optimization.
 Search for a local minimum.
 Step number   1 out of a maximum of  100
 All quantities printed in internal units (Hartrees-Bohrs-Radians)
 Second derivative matrix not updated -- first step.
 ITU=  0
     Eigenvalues ---    0.08082   0.11547   0.12377   0.12909   0.13808
     Eigenvalues ---    0.14309   0.14897   0.15616   0.15766   0.16305
     Eigenvalues ---    0.17739   0.22549   0.22924   0.23527   0.25060
     Eigenvalues ---    0.25353   0.26396   0.28605   0.29603   0.31406
     Eigenvalues ---    0.31754
 RFO step:  Lambda=-7.23347425D-03 EMin= 8.08192400D-02
 Linear search not attempted -- first point.
 TrRot= -0.001181 -0.000682  0.000847  0.000006  0.000019  0.000006
 MatCor failed.
 Variable       Old X    -DE/DX   Delta X   Delta X   Delta X     New X
                                 (Linear)    (Quad)   (Total)
    X1       -3.73240   0.01016   0.00000   0.04972   0.04848  -3.68392
    Y1        0.93594  -0.00075   0.00000  -0.00789  -0.00862   0.92732
    Z1       -2.48151   0.00268   0.00000   0.02787   0.02879  -2.45272
    X2        0.36734  -0.00036   0.00000  -0.00103  -0.00232   0.36502
    Y2        4.37963  -0.01300   0.00000  -0.07280  -0.07348   4.30615
    Z2       -3.10567   0.00735   0.00000   0.04215   0.04299  -3.06268
    X3        1.43462  -0.00578   0.00000  -0.02666  -0.02792   1.40671
    Y3       -0.58551   0.00387   0.00000   0.01957   0.01891  -0.56661
    Z3       -4.41406   0.01115   0.00000   0.06116   0.06198  -4.35208
    X4       -1.21658   0.00487   0.00000   0.02823   0.02704  -1.18955
    Y4        4.12489  -0.00962   0.00000  -0.05775  -0.05845   4.06644
    Z4        2.37847  -0.00627   0.00000  -0.04113  -0.04026   2.33821
    X5        4.06330  -0.01001   0.00000  -0.04961  -0.05081   4.01249
    Y5        2.40851  -0.00344   0.00000  -0.02581  -0.02645   2.38207
    Z5        0.28263  -0.00079   0.00000  -0.00464  -0.00387   0.27877
    X6        1.66985  -0.00411   0.00000  -0.02481  -0.02590   1.64395
    Y6       -0.48803   0.00356   0.00000   0.02113   0.02047  -0.46755
    Z6        4.38224  -0.01123   0.00000  -0.06533  -0.06451   4.31772
    X7       -3.55172   0.00737   0.00000   0.05129   0.05018  -3.50154
    Y7       -1.15625   0.00245   0.00000   0.01152   0.01079  -1.14546
    Z7        2.90689  -0.00363   0.00000  -0.03570  -0.03478   2.87210
    X8        3.64008  -0.00647   0.00000  -0.04556  -0.04670   3.59338
    Y8       -3.27220   0.00622   0.00000   0.04387   0.04324  -3.22896
    Z8        0.02488   0.00006   0.00000   0.00241   0.00319   0.02807
    X9       -1.70135   0.00431   0.00000   0.02910   0.02795  -1.67341
    Y9       -4.44136   0.01072   0.00000   0.07428   0.07358  -4.36778
    Z9       -1.58708   0.00067   0.00000   0.00559   0.00647  -1.58061
         Item               Value     Threshold  Converged?
 Maximum Force            0.012996     0.000450     NO 
 RMS     Force            0.006718     0.000300     NO 
 Maximum Displacement     0.073581     0.001800     NO 
 RMS     Displacement     0.040342     0.001200     NO 
 Predicted change in Energy=-3.775753D-03
 Lowest energy point so far.  Saving SCF results.
 GradGradGradGradGradGradGradGradGradGradGradGradGradGradGradGradGradGrad

 Leave Link  103 at Tue Mar  6 12:13:32 2018, MaxMem=   536870912 cpu:         0.2
 (Enter /share/apps//mg09/l202.exe)
                          Input orientation:                          
 ---------------------------------------------------------------------
 Center     Atomic      Atomic             Coordinates (Angstroms)
 Number     Number       Type             X           Y           Z
 ---------------------------------------------------------------------
      1         83           0       -1.949445    0.490719   -1.297922
      2         32           0        0.193159    2.278719   -1.620698
      3         32           0        0.744398   -0.299835   -2.303022
      4         50           0       -0.629481    2.151868    1.237327
      5         83           0        2.123316    1.260536    0.147518
      6         32           0        0.869942   -0.247419    2.284841
      7         83           0       -1.852933   -0.606149    1.519852
      8         83           0        1.901536   -1.708694    0.014855
      9         50           0       -0.885529   -2.311329   -0.836424
 ---------------------------------------------------------------------
                    Distance matrix (angstroms):
                    1          2          3          4          5
     1  Bi   0.000000
     2  Ge   2.809249   0.000000
     3  Ge   2.981944   2.723669   0.000000
     4  Sn   3.305936   2.976766   4.520229   0.000000
     5  Bi   4.389681   2.808699   3.215793   3.091933   0.000000
     6  Ge   4.618439   4.700281   4.589880   3.016974   2.900522
     7  Bi   3.025274   4.729906   4.631881   3.030398   4.601997
     8  Bi   4.625025   4.636059   2.948968   4.775397   2.980455
     9  Sn   3.032551   4.779873   2.975513   4.928096   4.772789
                    6          7          8          9
     6  Ge   0.000000
     7  Bi   2.850955   0.000000
     8  Bi   2.890042   4.192452   0.000000
     9  Sn   4.133242   3.065215   2.975832   0.000000
 Stoichiometry    Bi4Ge3Sn2
 Framework group  C1[X(Bi4Ge3Sn2)]
 Deg. of freedom    21
 Full point group                 C1      NOp   1
 RotChk:  IX=0 Diff= 6.65D-03
 Largest Abelian subgroup         C1      NOp   1
 Largest concise Abelian subgroup C1      NOp   1
                         Standard orientation:                         
 ---------------------------------------------------------------------
 Center     Atomic      Atomic             Coordinates (Angstroms)
 Number     Number       Type             X           Y           Z
 ---------------------------------------------------------------------
      1         83           0        1.952438   -0.498263   -1.290688
      2         32           0       -0.195296   -2.279555   -1.616438
      3         32           0       -0.735899    0.299687   -2.304645
      4         50           0        0.619793   -2.150643    1.243658
      5         83           0       -2.126921   -1.251861    0.144657
      6         32           0       -0.874417    0.255470    2.282931
      7         83           0        1.851779    0.603698    1.524953
      8         83           0       -1.894724    1.716374    0.007612
      9         50           0        0.896729    2.308143   -0.836887
 ---------------------------------------------------------------------
 Rotational constants (GHZ):      0.1071961      0.0915127      0.0830016
 Leave Link  202 at Tue Mar  6 12:13:34 2018, MaxMem=   536870912 cpu:         0.0
 (Enter /share/apps//mg09/l301.exe)
 Standard basis: def2TZVP (5D, 7F)
 Ernie: Thresh=  0.10000D-02 Tol=  0.10000D-05 Strict=F.
 There are   519 symmetry adapted cartesian basis functions of A   symmetry.
 There are   444 symmetry adapted basis functions of A   symmetry.
   444 basis functions,   963 primitive gaussians,   519 cartesian basis functions
   116 alpha electrons      116 beta electrons
       nuclear repulsion energy      3582.2280187358 Hartrees.
 IExCor= 1009 DFT=T Ex+Corr=PBE1PBE ExCW=0 ScaHFX=  0.250000
 ScaDFX=  0.750000  0.750000  1.000000  1.000000 ScalE2=  1.000000  1.000000
 IRadAn=      0 IRanWt=     -1 IRanGd=            0 ICorTp=0 IEmpDi=  4
 NAtoms=    9 NActive=    9 NUniq=    9 SFac= 1.00D+00 NAtFMM=   60 NAOKFM=F Big=F
 Integral buffers will be    131072 words long.
 Raffenetti 2 integral format.
 Two-electron integral symmetry is turned on.
 Leave Link  301 at Tue Mar  6 12:13:35 2018, MaxMem=   536870912 cpu:         0.2
 (Enter /share/apps//mg09/l302.exe)
 NPDir=0 NMtPBC=     1 NCelOv=     1 NCel=       1 NClECP=     1 NCelD=      1
         NCelK=      1 NCelE2=     1 NClLst=     1 CellRange=     0.0.
 One-electron integrals computed using PRISM.
   1 Symmetry operations used in ECPInt.
 ECPInt:  NShTT=   10440 NPrTT=   41973 LenC2=    9688 LenP2D=   27657.
 LDataN:  DoStor=T MaxTD1= 8 Len=  415
 NBasis=   444 RedAO= T EigKep=  1.35D-03  NBF=   444
 NBsUse=   444 1.00D-06 EigRej= -1.00D+00 NBFU=   444
 Precomputing XC quadrature grid using
 IXCGrd= 4 IRadAn=           0 IRanWt=          -1 IRanGd=           0 AccXCQ= 0.00D+00.
 Defaulting to unpruned grid for atomic number  83.
 Defaulting to unpruned grid for atomic number  50.
 Defaulting to unpruned grid for atomic number  83.
 Generated NRdTot=       0 NPtTot=           0 NUsed=           0 NTot=          32
 NSgBfM=   505   505   505   505   505 MxSgAt=     9 MxSgA2=     9.
 Leave Link  302 at Tue Mar  6 12:13:41 2018, MaxMem=   536870912 cpu:        26.2
 (Enter /share/apps//mg09/l303.exe)
 DipDrv:  MaxL=1.
 Leave Link  303 at Tue Mar  6 12:13:41 2018, MaxMem=   536870912 cpu:         0.2
 (Enter /share/apps//mg09/l401.exe)
 Initial guess from the checkpoint file:  "Isomer_16.chk"
 B after Tr=     0.000000    0.000000    0.000000
         Rot=    0.999997    0.000951    0.001370    0.001659 Ang=   0.27 deg.
 Guess basis will be translated and rotated to current coordinates.
 JPrj=2 DoOrth=T DoCkMO=T.
 Generating alternative initial guess.
 ExpMin= 4.62D-02 ExpMax= 4.66D+05 ExpMxC= 4.50D+03 IAcc=2 IRadAn=         4 AccDes= 0.00D+00
 Harris functional with IExCor= 1009 and IRadAn=       4 diagonalized for initial guess.
 HarFok:  IExCor= 1009 AccDes= 0.00D+00 IRadAn=         4 IDoV= 1 UseB2=F ITyADJ=14
 ICtDFT=  3500011 ScaDFX=  1.000000  1.000000  1.000000  1.000000
 Defaulting to unpruned grid for atomic number  83.
 Defaulting to unpruned grid for atomic number  83.
 Defaulting to unpruned grid for atomic number  83.
 Defaulting to unpruned grid for atomic number  83.
 FoFCou: FMM=F IPFlag=           0 FMFlag=      100000 FMFlg1=           0
         NFxFlg=           0 DoJE=T BraDBF=F KetDBF=T FulRan=T
         wScrn=  0.000000 ICntrl=     500 IOpCl=  0 I1Cent=   200000004 NGrid=           0
         NMat0=    1 NMatS0=      1 NMatT0=    0 NMatD0=    1 NMtDS0=    0 NMtDT0=    0
 Petite list used in FoFCou.
 Harris En= -7518.60700306686    
 Leave Link  401 at Tue Mar  6 12:13:44 2018, MaxMem=   536870912 cpu:        11.3
 (Enter /share/apps//mg09/l502.exe)
 Closed shell SCF:
 Using DIIS extrapolation, IDIIS=  1040.
 Integral symmetry usage will be decided dynamically.
 IVT=     1410107 IEndB=     1410107 NGot=   536870912 MDV=   536322046
 LenX=   536322046 LenY=   536052166
 Requested convergence on RMS density matrix=1.00D-08 within 768 cycles.
 Requested convergence on MAX density matrix=1.00D-06.
 Requested convergence on             energy=1.00D-06.
 No special actions if energy rises.
 Fock matrices will be formed incrementally for  20 cycles.

 Cycle   1  Pass 1  IDiag  1:
 FoFJK:  IHMeth= 1 ICntrl=       0 DoSepK=F KAlg= 0 I1Cent=   0 FoldK=F
 IRaf= 880000000 NMat=   1 IRICut=       1 DoRegI=T DoRafI=F ISym2E= 0.
 FoFCou: FMM=F IPFlag=           0 FMFlag=      100000 FMFlg1=           0
         NFxFlg=           0 DoJE=F BraDBF=F KetDBF=F FulRan=T
         wScrn=  0.000000 ICntrl=       0 IOpCl=  0 I1Cent=           0 NGrid=           0
         NMat0=    1 NMatS0=      1 NMatT0=    0 NMatD0=    1 NMtDS0=    0 NMtDT0=    0
 Symmetry not used in FoFCou.
 Defaulting to unpruned grid for atomic number  83.
 Defaulting to unpruned grid for atomic number  83.
 Defaulting to unpruned grid for atomic number  83.
 Defaulting to unpruned grid for atomic number  83.
 E= -7517.81814512129    
 DIIS: error= 5.12D-03 at cycle   1 NSaved=   1.
 NSaved= 1 IEnMin= 1 EnMin= -7517.81814512129     IErMin= 1 ErrMin= 5.12D-03
 ErrMax= 5.12D-03  0.00D+00 EMaxC= 1.00D-01 BMatC= 7.88D-03 BMatP= 7.88D-03
 IDIUse=3 WtCom= 9.49D-01 WtEn= 5.12D-02
 Coeff-Com:  0.100D+01
 Coeff-En:   0.100D+01
 Coeff:      0.100D+01
 Gap=     8.019 Goal=   None    Shift=    0.000
 GapD=    8.019 DampG=2.000 DampE=1.000 DampFc=2.0000 IDamp=-1.
 RMSDP=1.64D-04 MaxDP=3.54D-03              OVMax= 1.89D-02

 Cycle   2  Pass 1  IDiag  1:
 RMSU=  1.63D-04    CP:  1.00D+00
 E= -7517.81817453432     Delta-E=       -0.000029413026 Rises=F Damp=F
 DIIS: error= 1.22D-03 at cycle   2 NSaved=   2.
 NSaved= 2 IEnMin= 2 EnMin= -7517.81817453432     IErMin= 2 ErrMin= 1.22D-03
 ErrMax= 1.22D-03  0.00D+00 EMaxC= 1.00D-01 BMatC= 1.40D-03 BMatP= 7.88D-03
 IDIUse=3 WtCom= 9.88D-01 WtEn= 1.22D-02
 Coeff-Com:  0.189D+00 0.811D+00
 Coeff-En:   0.490D+00 0.510D+00
 Coeff:      0.192D+00 0.808D+00
 Gap=     0.125 Goal=   None    Shift=    0.000
 RMSDP=1.94D-04 MaxDP=7.56D-03 DE=-2.94D-05 OVMax= 1.60D-02

 Cycle   3  Pass 1  IDiag  1:
 RMSU=  1.75D-04    CP:  9.99D-01  5.11D-01
 E= -7517.81652217859     Delta-E=        0.001652355735 Rises=F Damp=F
 DIIS: error= 1.83D-03 at cycle   3 NSaved=   3.
 NSaved= 3 IEnMin= 2 EnMin= -7517.81817453432     IErMin= 2 ErrMin= 1.22D-03
 ErrMax= 1.83D-03  0.00D+00 EMaxC= 1.00D-01 BMatC= 3.39D-03 BMatP= 1.40D-03
 IDIUse=3 WtCom= 1.90D-01 WtEn= 8.10D-01
 Coeff-Com:  0.503D-02 0.607D+00 0.387D+00
 Coeff-En:   0.000D+00 0.667D+00 0.333D+00
 Coeff:      0.953D-03 0.656D+00 0.343D+00
 Gap=     0.125 Goal=   None    Shift=    0.000
 RMSDP=1.08D-04 MaxDP=4.19D-03 DE= 1.65D-03 OVMax= 1.24D-02

 Cycle   4  Pass 1  IDiag  1:
 RMSU=  3.78D-05    CP:  9.99D-01  7.98D-01  4.90D-01
 E= -7517.81910543289     Delta-E=       -0.002583254307 Rises=F Damp=F
 DIIS: error= 3.33D-04 at cycle   4 NSaved=   4.
 NSaved= 4 IEnMin= 4 EnMin= -7517.81910543289     IErMin= 4 ErrMin= 3.33D-04
 ErrMax= 3.33D-04  0.00D+00 EMaxC= 1.00D-01 BMatC= 1.71D-04 BMatP= 1.40D-03
 IDIUse=3 WtCom= 9.97D-01 WtEn= 3.33D-03
 Coeff-Com:  0.791D-06 0.442D+00 0.239D+00 0.319D+00
 Coeff-En:   0.000D+00 0.864D-01 0.000D+00 0.914D+00
 Coeff:      0.788D-06 0.441D+00 0.238D+00 0.321D+00
 Gap=     0.126 Goal=   None    Shift=    0.000
 RMSDP=3.46D-05 MaxDP=1.38D-03 DE=-2.58D-03 OVMax= 3.91D-03

 Cycle   5  Pass 1  IDiag  1:
 RMSU=  1.34D-05    CP:  9.99D-01  8.50D-01  4.40D-01  2.22D-01
 E= -7517.81924609582     Delta-E=       -0.000140662924 Rises=F Damp=F
 DIIS: error= 7.82D-05 at cycle   5 NSaved=   5.
 NSaved= 5 IEnMin= 5 EnMin= -7517.81924609582     IErMin= 5 ErrMin= 7.82D-05
 ErrMax= 7.82D-05  0.00D+00 EMaxC= 1.00D-01 BMatC= 1.41D-05 BMatP= 1.71D-04
 IDIUse=1 WtCom= 1.00D+00 WtEn= 0.00D+00
 Coeff-Com: -0.861D-03 0.223D+00 0.108D+00 0.250D+00 0.421D+00
 Coeff:     -0.861D-03 0.223D+00 0.108D+00 0.250D+00 0.421D+00
 Gap=     0.126 Goal=   None    Shift=    0.000
 RMSDP=9.52D-06 MaxDP=4.42D-04 DE=-1.41D-04 OVMax= 1.17D-03

 Cycle   6  Pass 1  IDiag  1:
 RMSU=  3.51D-06    CP:  9.99D-01  8.59D-01  4.35D-01  3.97D-01  5.96D-01
 E= -7517.81926149596     Delta-E=       -0.000015400146 Rises=F Damp=F
 DIIS: error= 1.02D-05 at cycle   6 NSaved=   6.
 NSaved= 6 IEnMin= 6 EnMin= -7517.81926149596     IErMin= 6 ErrMin= 1.02D-05
 ErrMax= 1.02D-05  0.00D+00 EMaxC= 1.00D-01 BMatC= 3.28D-07 BMatP= 1.41D-05
 IDIUse=1 WtCom= 1.00D+00 WtEn= 0.00D+00
 Coeff-Com: -0.406D-03 0.764D-01 0.367D-01 0.981D-01 0.205D+00 0.584D+00
 Coeff:     -0.406D-03 0.764D-01 0.367D-01 0.981D-01 0.205D+00 0.584D+00
 Gap=     0.126 Goal=   None    Shift=    0.000
 RMSDP=2.40D-06 MaxDP=9.79D-05 DE=-1.54D-05 OVMax= 3.18D-04

 Cycle   7  Pass 1  IDiag  1:
 RMSU=  2.05D-06    CP:  9.99D-01  8.63D-01  4.37D-01  4.00D-01  6.52D-01
                    CP:  8.21D-01
 E= -7517.81926157507     Delta-E=       -0.000000079104 Rises=F Damp=F
 DIIS: error= 1.36D-05 at cycle   7 NSaved=   7.
 NSaved= 7 IEnMin= 7 EnMin= -7517.81926157507     IErMin= 6 ErrMin= 1.02D-05
 ErrMax= 1.36D-05  0.00D+00 EMaxC= 1.00D-01 BMatC= 2.07D-07 BMatP= 3.28D-07
 IDIUse=1 WtCom= 1.00D+00 WtEn= 0.00D+00
 Coeff-Com: -0.122D-03 0.825D-02 0.458D-02 0.199D-01 0.641D-01 0.453D+00
 Coeff-Com:  0.450D+00
 Coeff:     -0.122D-03 0.825D-02 0.458D-02 0.199D-01 0.641D-01 0.453D+00
 Coeff:      0.450D+00
 Gap=     0.126 Goal=   None    Shift=    0.000
 RMSDP=1.73D-06 MaxDP=6.62D-05 DE=-7.91D-08 OVMax= 2.07D-04

 Cycle   8  Pass 1  IDiag  1:
 RMSU=  9.33D-07    CP:  9.99D-01  8.64D-01  4.39D-01  3.99D-01  6.68D-01
                    CP:  1.04D+00  4.39D-01
 E= -7517.81926175997     Delta-E=       -0.000000184908 Rises=F Damp=F
 DIIS: error= 7.00D-06 at cycle   8 NSaved=   8.
 NSaved= 8 IEnMin= 8 EnMin= -7517.81926175997     IErMin= 8 ErrMin= 7.00D-06
 ErrMax= 7.00D-06  0.00D+00 EMaxC= 1.00D-01 BMatC= 6.02D-08 BMatP= 2.07D-07
 IDIUse=1 WtCom= 1.00D+00 WtEn= 0.00D+00
 Coeff-Com:  0.658D-05-0.141D-01-0.591D-02-0.933D-02-0.189D-02 0.225D+00
 Coeff-Com:  0.380D+00 0.427D+00
 Coeff:      0.658D-05-0.141D-01-0.591D-02-0.933D-02-0.189D-02 0.225D+00
 Coeff:      0.380D+00 0.427D+00
 Gap=     0.126 Goal=   None    Shift=    0.000
 RMSDP=7.70D-07 MaxDP=3.29D-05 DE=-1.85D-07 OVMax= 7.88D-05

 Cycle   9  Pass 1  IDiag  1:
 RMSU=  2.64D-07    CP:  9.99D-01  8.64D-01  4.40D-01  4.02D-01  6.77D-01
                    CP:  1.06D+00  6.45D-01  4.35D-01
 E= -7517.81926183556     Delta-E=       -0.000000075584 Rises=F Damp=F
 DIIS: error= 1.21D-06 at cycle   9 NSaved=   9.
 NSaved= 9 IEnMin= 9 EnMin= -7517.81926183556     IErMin= 9 ErrMin= 1.21D-06
 ErrMax= 1.21D-06  0.00D+00 EMaxC= 1.00D-01 BMatC= 3.18D-09 BMatP= 6.02D-08
 IDIUse=1 WtCom= 1.00D+00 WtEn= 0.00D+00
 Coeff-Com:  0.199D-04-0.962D-02-0.404D-02-0.795D-02-0.101D-01 0.812D-01
 Coeff-Com:  0.180D+00 0.261D+00 0.509D+00
 Coeff:      0.199D-04-0.962D-02-0.404D-02-0.795D-02-0.101D-01 0.812D-01
 Coeff:      0.180D+00 0.261D+00 0.509D+00
 Gap=     0.126 Goal=   None    Shift=    0.000
 RMSDP=1.75D-07 MaxDP=1.03D-05 DE=-7.56D-08 OVMax= 2.80D-05

 Cycle  10  Pass 1  IDiag  1:
 RMSU=  9.22D-08    CP:  9.99D-01  8.64D-01  4.40D-01  4.04D-01  6.81D-01
                    CP:  1.07D+00  6.44D-01  5.32D-01  8.02D-01
 E= -7517.81926183866     Delta-E=       -0.000000003101 Rises=F Damp=F
 DIIS: error= 3.07D-07 at cycle  10 NSaved=  10.
 NSaved=10 IEnMin=10 EnMin= -7517.81926183866     IErMin=10 ErrMin= 3.07D-07
 ErrMax= 3.07D-07  0.00D+00 EMaxC= 1.00D-01 BMatC= 1.58D-10 BMatP= 3.18D-09
 IDIUse=1 WtCom= 1.00D+00 WtEn= 0.00D+00
 Coeff-Com:  0.781D-05-0.300D-02-0.121D-02-0.268D-02-0.454D-02 0.169D-01
 Coeff-Com:  0.470D-01 0.783D-01 0.230D+00 0.639D+00
 Coeff:      0.781D-05-0.300D-02-0.121D-02-0.268D-02-0.454D-02 0.169D-01
 Coeff:      0.470D-01 0.783D-01 0.230D+00 0.639D+00
 Gap=     0.126 Goal=   None    Shift=    0.000
 RMSDP=7.60D-08 MaxDP=3.92D-06 DE=-3.10D-09 OVMax= 1.06D-05

 Cycle  11  Pass 1  IDiag  1:
 RMSU=  6.27D-08    CP:  9.99D-01  8.64D-01  4.40D-01  4.04D-01  6.82D-01
                    CP:  1.07D+00  6.49D-01  5.39D-01  8.93D-01  7.72D-01
 E= -7517.81926183899     Delta-E=       -0.000000000331 Rises=F Damp=F
 DIIS: error= 4.70D-07 at cycle  11 NSaved=  11.
 NSaved=11 IEnMin=11 EnMin= -7517.81926183899     IErMin=10 ErrMin= 3.07D-07
 ErrMax= 4.70D-07  0.00D+00 EMaxC= 1.00D-01 BMatC= 2.55D-10 BMatP= 1.58D-10
 IDIUse=1 WtCom= 1.00D+00 WtEn= 0.00D+00
 Coeff-Com:  0.122D-05 0.783D-04 0.886D-04-0.116D-03-0.118D-02-0.814D-02
 Coeff-Com: -0.972D-02-0.418D-02 0.631D-01 0.599D+00 0.362D+00
 Coeff:      0.122D-05 0.783D-04 0.886D-04-0.116D-03-0.118D-02-0.814D-02
 Coeff:     -0.972D-02-0.418D-02 0.631D-01 0.599D+00 0.362D+00
 Gap=     0.126 Goal=   None    Shift=    0.000
 RMSDP=5.00D-08 MaxDP=2.43D-06 DE=-3.31D-10 OVMax= 7.18D-06

 Cycle  12  Pass 1  IDiag  1:
 RMSU=  1.85D-08    CP:  9.99D-01  8.64D-01  4.40D-01  4.04D-01  6.82D-01
                    CP:  1.08D+00  6.52D-01  5.38D-01  9.13D-01  1.03D+00
                    CP:  4.18D-01
 E= -7517.81926183918     Delta-E=       -0.000000000189 Rises=F Damp=F
 DIIS: error= 6.96D-08 at cycle  12 NSaved=  12.
 NSaved=12 IEnMin=12 EnMin= -7517.81926183918     IErMin=12 ErrMin= 6.96D-08
 ErrMax= 6.96D-08  0.00D+00 EMaxC= 1.00D-01 BMatC= 1.29D-11 BMatP= 1.58D-10
 IDIUse=1 WtCom= 1.00D+00 WtEn= 0.00D+00
 Coeff-Com: -0.582D-06 0.561D-03 0.265D-03 0.375D-03 0.497D-04-0.790D-02
 Coeff-Com: -0.144D-01-0.158D-01 0.278D-02 0.294D+00 0.235D+00 0.505D+00
 Coeff:     -0.582D-06 0.561D-03 0.265D-03 0.375D-03 0.497D-04-0.790D-02
 Coeff:     -0.144D-01-0.158D-01 0.278D-02 0.294D+00 0.235D+00 0.505D+00
 Gap=     0.126 Goal=   None    Shift=    0.000
 RMSDP=1.25D-08 MaxDP=5.31D-07 DE=-1.89D-10 OVMax= 1.97D-06

 Cycle  13  Pass 1  IDiag  1:
 RMSU=  6.82D-09    CP:  9.99D-01  8.64D-01  4.40D-01  4.04D-01  6.83D-01
                    CP:  1.08D+00  6.52D-01  5.42D-01  9.22D-01  1.06D+00
                    CP:  5.08D-01  6.84D-01
 E= -7517.81926183921     Delta-E=       -0.000000000025 Rises=F Damp=F
 DIIS: error= 2.05D-08 at cycle  13 NSaved=  13.
 NSaved=13 IEnMin=13 EnMin= -7517.81926183921     IErMin=13 ErrMin= 2.05D-08
 ErrMax= 2.05D-08  0.00D+00 EMaxC= 1.00D-01 BMatC= 1.02D-12 BMatP= 1.29D-11
 IDIUse=1 WtCom= 1.00D+00 WtEn= 0.00D+00
 Coeff-Com: -0.409D-06 0.269D-03 0.121D-03 0.196D-03 0.180D-03-0.305D-02
 Coeff-Com: -0.610D-02-0.774D-02-0.699D-02 0.765D-01 0.755D-01 0.279D+00
 Coeff-Com:  0.592D+00
 Coeff:     -0.409D-06 0.269D-03 0.121D-03 0.196D-03 0.180D-03-0.305D-02
 Coeff:     -0.610D-02-0.774D-02-0.699D-02 0.765D-01 0.755D-01 0.279D+00
 Coeff:      0.592D+00
 Gap=     0.126 Goal=   None    Shift=    0.000
 RMSDP=4.26D-09 MaxDP=3.24D-07 DE=-2.55D-11 OVMax= 5.60D-07

 SCF Done:  E(RPBE1PBE) =  -7517.81926184     A.U. after   13 cycles
            NFock= 13  Conv=0.43D-08     -V/T= 2.1284
 KE= 6.662168569065D+03 PE=-2.475577697401D+04 EE= 6.993561124369D+03
 Leave Link  502 at Tue Mar  6 12:23:08 2018, MaxMem=   536870912 cpu:      2251.7
 (Enter /share/apps//mg09/l701.exe)
 Compute integral first derivatives.
 ... and contract with generalized density number  0.
   1 Symmetry operations used in ECPInt.
 ECPInt:  NShTT=   10440 NPrTT=   41973 LenC2=    9688 LenP2D=   27657.
 LDataN:  DoStor=T MaxTD1= 9 Len=  602
 Leave Link  701 at Tue Mar  6 12:23:24 2018, MaxMem=   536870912 cpu:        63.0
 (Enter /share/apps//mg09/l702.exe)
 L702 exits ... SP integral derivatives will be done elsewhere.
 Leave Link  702 at Tue Mar  6 12:23:24 2018, MaxMem=   536870912 cpu:         0.1
 (Enter /share/apps//mg09/l703.exe)
 Compute integral first derivatives, UseDBF=F ICtDFT=           0.
 Integral derivatives from FoFJK, PRISM(SPDF).
 Calling FoFJK, ICntrl=      2127 FMM=F ISym2X=0 I1Cent= 0 IOpClX= 0 NMat=1 NMatS=1 NMatT=0.
 FoFJK:  IHMeth= 1 ICntrl=    2127 DoSepK=F KAlg= 0 I1Cent=   0 FoldK=F
 IRaf=         0 NMat=   1 IRICut=       1 DoRegI=T DoRafI=F ISym2E= 0.
 FoFCou: FMM=F IPFlag=           0 FMFlag=      100000 FMFlg1=         800
         NFxFlg=           0 DoJE=F BraDBF=F KetDBF=F FulRan=T
         wScrn=  0.000000 ICntrl=    2127 IOpCl=  0 I1Cent=           0 NGrid=           0
         NMat0=    1 NMatS0=      1 NMatT0=    0 NMatD0=    1 NMtDS0=    0 NMtDT0=    0
 Symmetry not used in FoFCou.
 Defaulting to unpruned grid for atomic number  83.
 Defaulting to unpruned grid for atomic number  83.
 Defaulting to unpruned grid for atomic number  83.
 Defaulting to unpruned grid for atomic number  83.
 Leave Link  703 at Tue Mar  6 12:26:27 2018, MaxMem=   536870912 cpu:       729.6
 (Enter /share/apps//mg09/l716.exe)
 Dipole        = 1.25380930D-01 5.42213221D-02 7.76232860D-02
 ***** Axes restored to original set *****
 -------------------------------------------------------------------
 Center     Atomic                   Forces (Hartrees/Bohr)
 Number     Number              X              Y              Z
 -------------------------------------------------------------------
      1       83           0.003594219    0.000702840   -0.000696900
      2       32          -0.000042819   -0.006621249    0.003329252
      3       32          -0.003366060    0.002047762    0.006067376
      4       50           0.002628765   -0.004314161   -0.002741255
      5       83          -0.003271429    0.000201049   -0.000315968
      6       32          -0.002369157    0.002644317   -0.005518715
      7       83           0.002563726    0.000147086    0.000808908
      8       83          -0.001849119    0.000784283    0.000138327
      9       50           0.002111875    0.004408073   -0.001071026
 -------------------------------------------------------------------
 Cartesian Forces:  Max     0.006621249 RMS     0.003008893
 Leave Link  716 at Tue Mar  6 12:26:27 2018, MaxMem=   536870912 cpu:         0.1
 (Enter /share/apps//mg09/l103.exe)

 GradGradGradGradGradGradGradGradGradGradGradGradGradGradGradGradGradGrad
 Berny optimization.
 Search for a local minimum.
 Step number   2 out of a maximum of  100
 All quantities printed in internal units (Hartrees-Bohrs-Radians)
 Update second derivatives using D2CorN and points    1    2
 DE= -5.15D-03 DEPred=-3.78D-03 R= 1.36D+00
 TightC=F SS=  1.41D+00  RLast= 2.10D-01 DXNew= 5.0454D-01 6.2887D-01
 Trust test= 1.36D+00 RLast= 2.10D-01 DXMaxT set to 5.05D-01
 ITU=  1  0
     Eigenvalues ---    0.07907   0.09675   0.11578   0.12420   0.13010
     Eigenvalues ---    0.13828   0.14489   0.15156   0.15755   0.16308
     Eigenvalues ---    0.17651   0.22494   0.22883   0.23523   0.24972
     Eigenvalues ---    0.25321   0.26292   0.28540   0.29589   0.31404
     Eigenvalues ---    0.31755
 RFO step:  Lambda=-3.14076211D-04 EMin= 7.90698454D-02
 Quartic linear search produced a step of  0.61533.
 TrRot= -0.000045  0.000139  0.000207  0.664374  0.000107 -0.664358
 MatCor failed.
 Variable       Old X    -DE/DX   Delta X   Delta X   Delta X     New X
                                 (Linear)    (Quad)   (Total)
    X1       -3.68392   0.00359   0.02983  -0.00388   0.02569  -3.65823
    Y1        0.92732   0.00070  -0.00530   0.00632   0.00093   0.92826
    Z1       -2.45272  -0.00070   0.01772  -0.00796   0.01021  -2.44251
    X2        0.36502  -0.00004  -0.00143   0.00196   0.00016   0.36517
    Y2        4.30615  -0.00662  -0.04521  -0.01008  -0.05535   4.25081
    Z2       -3.06268   0.00333   0.02645   0.00241   0.02876  -3.03392
    X3        1.40671  -0.00337  -0.01718  -0.00398  -0.02156   1.38515
    Y3       -0.56661   0.00205   0.01163   0.00236   0.01387  -0.55273
    Z3       -4.35208   0.00607   0.03814   0.00922   0.04749  -4.30460
    X4       -1.18955   0.00263   0.01664   0.00313   0.01985  -1.16970
    Y4        4.06644  -0.00431  -0.03597  -0.00215  -0.03784   4.02860
    Z4        2.33821  -0.00274  -0.02477  -0.00165  -0.02639   2.31182
    X5        4.01249  -0.00327  -0.03127   0.00397  -0.02735   3.98513
    Y5        2.38207   0.00020  -0.01627   0.00847  -0.00758   2.37449
    Z5        0.27877  -0.00032  -0.00238   0.00024  -0.00243   0.27634
    X6        1.64395  -0.00237  -0.01594  -0.00096  -0.01658   1.62737
    Y6       -0.46755   0.00264   0.01260   0.01412   0.02717  -0.44039
    Z6        4.31772  -0.00552  -0.03970  -0.00494  -0.04454   4.27318
    X7       -3.50154   0.00256   0.03088  -0.00033   0.03077  -3.47077
    Y7       -1.14546   0.00015   0.00664  -0.01026  -0.00335  -1.14880
    Z7        2.87210   0.00081  -0.02140   0.01618  -0.00465   2.86746
    X8        3.59338  -0.00185  -0.02873   0.00212  -0.02660   3.56678
    Y8       -3.22896   0.00078   0.02661  -0.01170   0.01510  -3.21386
    Z8        0.02807   0.00014   0.00196   0.00392   0.00600   0.03408
    X9       -1.67341   0.00211   0.01720  -0.00146   0.01563  -1.65778
    Y9       -4.36778   0.00441   0.04528   0.00176   0.04704  -4.32074
    Z9       -1.58061  -0.00107   0.00398  -0.01906  -0.01445  -1.59506
         Item               Value     Threshold  Converged?
 Maximum Force            0.006621     0.000450     NO 
 RMS     Force            0.003009     0.000300     NO 
 Maximum Displacement     0.055347     0.001800     NO 
 RMS     Displacement     0.026186     0.001200     NO 
[...]
     X            X     X                   X                                                                                        
     X            X     X                   X                                                                                        
     X            X     X                   X                                                                                        
     X                  X                   X                                                                                        
                        X                   X                                                                                        
                        X                   X                                                                                        
                        X                   X                                                                                        
                                            X                                                                                        
                                            X                                                                                        
                                            X                                                                                        
                                            X                                                                                        
                                            X                                                                                        
                                            X                                                                                        
                                            X                                                                                        
 
 ***** Axes restored to original set *****
 -------------------------------------------------------------------
 Center     Atomic                   Forces (Hartrees/Bohr)
 Number     Number              X              Y              Z
 -------------------------------------------------------------------
      1       83          -0.000023243   -0.000035047    0.000013214
      2       32          -0.000045310   -0.000008973    0.000019257
      3       32           0.000020397   -0.000001390   -0.000007603
      4       50          -0.000004983    0.000047807    0.000014027
      5       83           0.000015095   -0.000032511   -0.000020916
      6       32           0.000000301    0.000014963   -0.000039014
      7       83           0.000014635   -0.000005845   -0.000000716
      8       83           0.000027084    0.000008971   -0.000010544
      9       50          -0.000003975    0.000012024    0.000032296
 -------------------------------------------------------------------
 Cartesian Forces:  Max     0.000047807 RMS     0.000022175
 Force constants in Cartesian coordinates: 
                1             2             3             4             5 
      1  0.776049D-01
      2  0.397247D-02  0.621398D-01
      3  0.891432D-02 -0.166173D-01  0.581872D-01
      4 -0.297766D-01 -0.248783D-01  0.161013D-02  0.602110D-01
      5 -0.216504D-01 -0.185971D-01  0.678246D-02  0.871853D-02  0.688012D-01
      6  0.697789D-04  0.471280D-02 -0.142917D-02  0.119776D-01 -0.190206D-01
      7 -0.206096D-01  0.888944D-02  0.921953D-02 -0.132004D-02  0.438213D-02
      8  0.795731D-02 -0.341908D-03 -0.154986D-02  0.501557D-02 -0.298045D-01
      9  0.611856D-02 -0.925548D-03 -0.707373D-02  0.162011D-02 -0.380535D-02
     10 -0.290199D-02 -0.134522D-02 -0.595867D-02 -0.385381D-04 -0.304600D-03
     11 -0.158001D-02 -0.438218D-02 -0.652911D-02  0.104003D-03 -0.376174D-02
     12 -0.516315D-02 -0.615078D-02 -0.811688D-02  0.551130D-02  0.122374D-02
     13 -0.724699D-02 -0.208728D-02 -0.457766D-03 -0.251610D-01  0.672412D-02
     14  0.184588D-02 -0.131581D-02 -0.254530D-02  0.963568D-02 -0.671593D-02
     15 -0.190134D-02 -0.279279D-02 -0.255976D-02 -0.228159D-01  0.118860D-01
     16  0.260332D-03  0.150222D-02 -0.868478D-02 -0.204503D-02  0.936264D-03
     17  0.117820D-02 -0.329665D-02  0.925958D-04  0.240033D-02 -0.147798D-02
     18 -0.697897D-03 -0.404183D-03 -0.440026D-02 -0.436629D-03 -0.139256D-02
     19 -0.514447D-02 -0.773684D-03 -0.219955D-02  0.146156D-03  0.372201D-05
     20 -0.153836D-02 -0.303863D-02  0.158010D-01 -0.463015D-02 -0.884589D-03
     21 -0.274057D-02  0.145058D-01 -0.363625D-01  0.272473D-02  0.770964D-03
     22 -0.388085D-02  0.254530D-02  0.162627D-02  0.791686D-03 -0.603829D-03
     23 -0.819314D-03  0.432222D-03  0.130222D-02  0.447639D-02 -0.420761D-02
     24 -0.161336D-02  0.281991D-02 -0.127872D-02 -0.181406D-02  0.221122D-02
     25 -0.830467D-02  0.121751D-01 -0.406949D-02 -0.280758D-02  0.179409D-02
     26  0.106343D-01 -0.315997D-01  0.326328D-02 -0.842027D-03 -0.335181D-02
     27 -0.298632D-02  0.485210D-02  0.303386D-02  0.162269D-02  0.134414D-02
                6             7             8             9            10 
      6  0.505189D-01
      7  0.816941D-03  0.389312D-01
      8 -0.666597D-02 -0.782289D-02  0.526258D-01
      9 -0.438113D-02 -0.115045D-01 -0.995226D-03  0.592987D-01
     10  0.526691D-02 -0.448324D-02  0.163517D-02 -0.647626D-04  0.410119D-01
     11  0.225581D-02 -0.388187D-03 -0.130332D-02 -0.759280D-03 -0.383976D-02
     12 -0.190642D-01  0.143740D-02 -0.669045D-02 -0.466903D-02 -0.120653D-01
     13 -0.204970D-01 -0.194782D-02 -0.197974D-02 -0.914691D-03 -0.246826D-01
     14  0.139047D-01 -0.454999D-02 -0.247225D-02 -0.470820D-02  0.751907D-02
     15 -0.183135D-01 -0.198369D-02 -0.287260D-02 -0.713476D-02  0.118579D-01
     16  0.148192D-02 -0.129615D-03 -0.406752D-02  0.360987D-02 -0.242905D-02
     17  0.324640D-02 -0.452668D-02 -0.738981D-04 -0.247194D-02  0.100152D-01
     18 -0.318660D-02 -0.417794D-02  0.209159D-02 -0.798044D-02 -0.335052D-02
     19 -0.503052D-03 -0.181906D-02  0.195509D-02 -0.774927D-03 -0.521401D-02
     20  0.293110D-02  0.434018D-02 -0.370733D-03  0.222769D-03 -0.134924D-01
     21 -0.176583D-02  0.606478D-02  0.295260D-02 -0.414274D-02  0.475323D-02
     22  0.350578D-03 -0.440595D-02  0.549705D-02 -0.548252D-02 -0.216603D-02
     23  0.621106D-04  0.900554D-02 -0.657881D-02  0.912205D-02  0.195127D-02
     24 -0.241710D-03 -0.666373D-02  0.696654D-02 -0.182066D-01  0.431882D-02
     25  0.103626D-02 -0.421581D-02 -0.819005D-02  0.739288D-02  0.903563D-03
     26 -0.142638D-02 -0.932955D-02 -0.116804D-01  0.432073D-02 -0.213865D-02
     27 -0.213677D-02  0.679123D-02  0.676338D-02 -0.571029D-02 -0.475764D-02
               11            12            13            14            15 
     11  0.650186D-01
     12  0.962786D-02  0.407420D-01
     13  0.574999D-02  0.102469D-01  0.791553D-01
     14 -0.479819D-02 -0.450837D-02  0.652567D-02  0.775276D-01
     15 -0.391055D-02 -0.853764D-03  0.600072D-02 -0.130691D-01  0.470936D-01
     16  0.919035D-02 -0.226911D-02 -0.121943D-01 -0.926852D-02  0.103262D-01
     17 -0.114270D-01  0.472000D-02 -0.765310D-02 -0.463030D-02  0.159450D-01
     18  0.260704D-02 -0.513685D-02  0.818718D-02  0.132313D-01 -0.185246D-01
     19 -0.119954D-01  0.279644D-02 -0.316613D-02  0.788602D-03  0.249989D-02
     20 -0.301740D-01  0.829159D-03 -0.112978D-02 -0.366124D-02  0.621234D-03
     21  0.157799D-02 -0.191132D-02 -0.601948D-03 -0.816735D-04  0.936414D-04
     22 -0.134331D-02  0.853830D-03 -0.410297D-02 -0.439608D-02 -0.247425D-02
     23 -0.444371D-02  0.115418D-02 -0.495498D-02 -0.511859D-01 -0.456154D-02
     24 -0.145830D-02 -0.855065D-04 -0.332899D-02 -0.112934D-02  0.258515D-02
     25  0.410229D-02 -0.134836D-02 -0.653424D-03 -0.810032D-02 -0.150956D-02
     26 -0.472846D-02 -0.205334D-03 -0.119491D-02 -0.274790D-02 -0.124559D-02
     27 -0.341147D-02 -0.904426D-03  0.136554D-02 -0.109405D-02 -0.238593D-02
               16            17            18            19            20 
     16  0.614507D-01
     17 -0.129463D-02  0.351384D-01
     18 -0.176059D-02 -0.722815D-02  0.674726D-01
     19 -0.379202D-01 -0.770260D-02 -0.579128D-02  0.616356D-01
     20 -0.758594D-02 -0.137883D-02  0.247431D-02  0.166482D-01  0.501675D-01
     21 -0.106319D-01  0.195626D-02 -0.509772D-02 -0.859768D-02 -0.854855D-02
     22 -0.566063D-02  0.800691D-02  0.727884D-02 -0.518529D-02  0.410355D-02
     23  0.966801D-02 -0.130327D-01 -0.125126D-01 -0.208313D-02  0.472914D-03
     24  0.951590D-02 -0.116625D-01 -0.211822D-01  0.301506D-02 -0.462041D-02
     25 -0.133220D-02 -0.423593D-03  0.748840D-03 -0.333255D-02  0.328477D-02
     26  0.919764D-03  0.179011D-03  0.113322D-02  0.315920D-02 -0.111324D-01
     27 -0.158756D-02 -0.459758D-02 -0.196389D-02  0.955510D-02 -0.971062D-02
               21            22            23            24            25 
     21  0.702013D-01
     22 -0.205071D-03  0.640172D-01
     23 -0.100999D-02 -0.952546D-02  0.838807D-01
     24 -0.291468D-02  0.114154D-01  0.751658D-02  0.429719D-01
     25  0.923444D-02 -0.394071D-01 -0.771832D-02 -0.148451D-01  0.591498D-01
     26 -0.121234D-01 -0.428414D-02 -0.533710D-02 -0.643672D-03  0.307605D-02
     27 -0.181001D-01 -0.133631D-01 -0.107301D-02 -0.164760D-02  0.336004D-02
               26            27 
     26  0.703988D-01
     27  0.692711D-02  0.298152D-01
 Leave Link  716 at Tue Mar  6 15:21:03 2018, MaxMem=   536870912 cpu:         0.1
 (Enter /share/apps//mg09/l103.exe)

 GradGradGradGradGradGradGradGradGradGradGradGradGradGradGradGradGradGrad
 Berny optimization.
 Search for a local minimum.
 Step number   1 out of a maximum of    2
 All quantities printed in internal units (Hartrees-Bohrs-Radians)
 Second derivative matrix not updated -- analytic derivatives used.
 ITU=  0
     Eigenvalues ---    0.00752   0.01318   0.03133   0.03600   0.04180
     Eigenvalues ---    0.04429   0.05088   0.05512   0.05692   0.05950
     Eigenvalues ---    0.06302   0.06668   0.08127   0.09004   0.09957
     Eigenvalues ---    0.11347   0.11852   0.12643   0.12925   0.13864
     Eigenvalues ---    0.14935
 Angle between quadratic step and forces=  48.32 degrees.
 Linear search not attempted -- first point.
 TrRot= -0.000018  0.000013  0.000005  0.000005 -0.000004  0.000005
 Variable       Old X    -DE/DX   Delta X   Delta X   Delta X     New X
                                 (Linear)    (Quad)   (Total)
    X1       -3.68710  -0.00002   0.00000  -0.00007  -0.00008  -3.68719
    Y1        0.95877  -0.00004   0.00000  -0.00113  -0.00115   0.95762
    Z1       -2.42582   0.00001   0.00000  -0.00090  -0.00091  -2.42673
    X2        0.37219  -0.00005   0.00000  -0.00130  -0.00134   0.37085
    Y2        4.23068  -0.00001   0.00000   0.00039   0.00041   4.23108
    Z2       -3.03995   0.00002   0.00000   0.00124   0.00124  -3.03871
    X3        1.37835   0.00002   0.00000   0.00106   0.00106   1.37941
    Y3       -0.55122   0.00000   0.00000   0.00049   0.00052  -0.55070
    Z3       -4.26168  -0.00001   0.00000   0.00011   0.00012  -4.26156
    X4       -1.17686   0.00000   0.00000   0.00084   0.00077  -1.17609
    Y4        4.00457   0.00005   0.00000   0.00076   0.00076   4.00534
    Z4        2.30313   0.00001   0.00000   0.00061   0.00061   2.30374
    X5        4.01351   0.00002   0.00000   0.00030   0.00026   4.01377
    Y5        2.37714  -0.00003   0.00000  -0.00087  -0.00082   2.37632
    Z5        0.25678  -0.00002   0.00000  -0.00089  -0.00087   0.25591
    X6        1.62737   0.00000   0.00000  -0.00060  -0.00064   1.62673
    Y6       -0.38870   0.00001   0.00000  -0.00010  -0.00007  -0.38877
    Z6        4.26608  -0.00004   0.00000  -0.00083  -0.00082   4.26526
    X7       -3.45441   0.00001   0.00000  -0.00061  -0.00063  -3.45504
    Y7       -1.18899  -0.00001   0.00000   0.00078   0.00076  -1.18823
    Z7        2.87982   0.00000   0.00000  -0.00035  -0.00036   2.87945
    X8        3.55572   0.00003   0.00000   0.00055   0.00056   3.55628
    Y8       -3.23210   0.00001   0.00000  -0.00050  -0.00046  -3.23256
    Z8        0.06967  -0.00001   0.00000  -0.00022  -0.00020   0.06947
    X9       -1.65562   0.00000   0.00000   0.00001   0.00003  -1.65559
    Y9       -4.30452   0.00001   0.00000   0.00006   0.00006  -4.30447
    Z9       -1.66123   0.00003   0.00000   0.00119   0.00119  -1.66003
         Item               Value     Threshold  Converged?
 Maximum Force            0.000048     0.000450     YES
 RMS     Force            0.000022     0.000300     YES
 Maximum Displacement     0.001339     0.001800     YES
 RMS     Displacement     0.000728     0.001200     YES
 Predicted change in Energy=-1.456989D-07
 Optimization completed.
    -- Stationary point found.
 GradGradGradGradGradGradGradGradGradGradGradGradGradGradGradGradGradGrad

 Leave Link  103 at Tue Mar  6 15:21:03 2018, MaxMem=   536870912 cpu:         0.1
 (Enter /share/apps//mg09/l9999.exe)
 1\1\GINC-COMPUTE-0-4\Freq\RPBE1PBE\def2TZVP\Bi4Ge3Sn2\RODRIGO\06-Mar-2
 018\0\\#P Geom=AllCheck Guess=TCheck SCRF=Check GenChk RPBE1PBE/def2TZ
 VP Freq\\01Final_coords.xyz_16\\0,1\Bi,-1.9511303532,0.5073610312,-1.2
 836862338\Ge,0.1969551419,2.2387768855,-1.6086732919\Ge,0.7293894472,-
 0.2916920164,-2.2551843663\Sn,-0.6227691753,2.119128595,1.2187637386\B
 i,2.1238591217,1.2579300027,0.135880071\Ge,0.8611646265,-0.2056914757,
 2.2575106619\Bi,-1.8279961944,-0.6291882078,1.5239324677\Bi,1.88160812
 89,-1.7103532804,0.0368669017\Sn,-0.8761177432,-2.2778555341,-0.879083
 9489\\Version=ES64L-G09RevD.01\State=1-A\HF=-7517.8206684\RMSD=3.351e-
 09\RMSF=2.217e-05\ZeroPoint=0.0057881\Thermal=0.0232841\Dipole=-0.1241
 711,-0.0592901,0.0694408\DipoleDeriv=0.0586009,-0.0646928,0.1006754,-0
 .0395878,-0.0312298,0.0103487,0.0111114,0.0412036,0.0349942,-0.186064,
 0.0015818,0.0027801,0.0446023,0.0401456,-0.2027018,-0.0222921,-0.17133
 81,-0.0414014,0.0453705,0.0215593,-0.0331098,0.0123119,-0.0638738,-0.0
 087342,0.0219314,0.0050823,0.0132355,0.122193,-0.1031393,-0.0544603,-0
 .0400344,0.2332214,0.138751,-0.009903,0.0925006,0.1014013,0.1122114,0.
 0874048,-0.0069462,0.0026105,-0.0189856,0.0602447,-0.0353592,0.0199752
 ,0.0201489,-0.1287857,0.0253082,0.1398604,0.0474101,-0.0652779,0.00463
 05,0.0835681,0.0042851,0.0463144,-0.0068364,0.0363579,-0.1555126,-0.04
 73964,-0.1898682,-0.079275,-0.0476018,-0.0635046,-0.1207491,-0.0076206
 ,-0.170991,-0.0595912,-0.0505957,-0.1337269,-0.0341277,-0.045738,-0.01
 93625,-0.1431433,-0.009069,0.166611,0.0663042,0.0706795,0.2295952,0.11
 08638,0.044283,0.0911583,0.0891996\Polar=377.0453604,2.0999943,392.371
 226,-1.1789631,7.9322666,362.2328298\PG=C01 [X(Bi4Ge3Sn2)]\NImag=0\\0.
 07760486,0.00397247,0.06213977,0.00891432,-0.01661729,0.05818716,-0.02
 977660,-0.02487833,0.00161013,0.06021099,-0.02165044,-0.01859708,0.006
 78246,0.00871853,0.06880122,0.00006978,0.00471280,-0.00142917,0.011977
 63,-0.01902058,0.05051893,-0.02060963,0.00888944,0.00921953,-0.0013200
 4,0.00438213,0.00081694,0.03893119,0.00795731,-0.00034191,-0.00154986,
 0.00501557,-0.02980448,-0.00666597,-0.00782289,0.05262582,0.00611856,-
 0.00092555,-0.00707373,0.00162011,-0.00380535,-0.00438113,-0.01150451,
 -0.00099523,0.05929867,-0.00290199,-0.00134522,-0.00595867,-0.00003854
 ,-0.00030460,0.00526691,-0.00448324,0.00163517,-0.00006476,0.04101191,
 -0.00158001,-0.00438218,-0.00652911,0.00010400,-0.00376174,0.00225581,
 -0.00038819,-0.00130332,-0.00075928,-0.00383976,0.06501858,-0.00516315
 ,-0.00615078,-0.00811688,0.00551130,0.00122374,-0.01906422,0.00143740,
 -0.00669045,-0.00466903,-0.01206525,0.00962786,0.04074200,-0.00724699,
 -0.00208728,-0.00045777,-0.02516104,0.00672412,-0.02049696,-0.00194782
 ,-0.00197974,-0.00091469,-0.02468261,0.00574999,0.01024691,0.07915531,
 0.00184588,-0.00131581,-0.00254530,0.00963568,-0.00671593,0.01390471,-
 0.00454999,-0.00247225,-0.00470820,0.00751907,-0.00479819,-0.00450837,
 0.00652567,0.07752757,-0.00190134,-0.00279279,-0.00255976,-0.02281590,
 0.01188597,-0.01831352,-0.00198369,-0.00287260,-0.00713476,0.01185789,
 -0.00391055,-0.00085376,0.00600072,-0.01306910,0.04709358,0.00026033,0
 .00150222,-0.00868478,-0.00204503,0.00093626,0.00148192,-0.00012962,-0
 .00406752,0.00360987,-0.00242905,0.00919035,-0.00226911,-0.01219432,-0
 .00926852,0.01032624,0.06145071,0.00117820,-0.00329665,0.00009260,0.00
 240033,-0.00147798,0.00324640,-0.00452668,-0.00007390,-0.00247194,0.01
 001516,-0.01142703,0.00472000,-0.00765310,-0.00463030,0.01594497,-0.00
 129463,0.03513837,-0.00069790,-0.00040418,-0.00440026,-0.00043663,-0.0
 0139256,-0.00318660,-0.00417794,0.00209159,-0.00798044,-0.00335052,0.0
 0260704,-0.00513685,0.00818718,0.01323133,-0.01852464,-0.00176059,-0.0
 0722815,0.06747263,-0.00514447,-0.00077368,-0.00219955,0.00014616,0.00
 000372,-0.00050305,-0.00181906,0.00195509,-0.00077493,-0.00521401,-0.0
 1199536,0.00279644,-0.00316613,0.00078860,0.00249989,-0.03792019,-0.00
 770260,-0.00579128,0.06163555,-0.00153836,-0.00303863,0.01580099,-0.00
 463015,-0.00088459,0.00293110,0.00434018,-0.00037073,0.00022277,-0.013
 49244,-0.03017396,0.00082916,-0.00112978,-0.00366124,0.00062123,-0.007
 58594,-0.00137883,0.00247431,0.01664816,0.05016746,-0.00274057,0.01450
 577,-0.03636252,0.00272473,0.00077096,-0.00176583,0.00606478,0.0029526
 0,-0.00414274,0.00475323,0.00157799,-0.00191132,-0.00060195,-0.0000816
 7,0.00009364,-0.01063190,0.00195626,-0.00509772,-0.00859768,-0.0085485
 5,0.07020126,-0.00388085,0.00254530,0.00162627,0.00079169,-0.00060383,
 0.00035058,-0.00440595,0.00549705,-0.00548252,-0.00216603,-0.00134331,
 0.00085383,-0.00410297,-0.00439608,-0.00247425,-0.00566063,0.00800691,
 0.00727884,-0.00518529,0.00410355,-0.00020507,0.06401717,-0.00081931,0
 .00043222,0.00130222,0.00447639,-0.00420761,0.00006211,0.00900554,-0.0
 0657881,0.00912205,0.00195127,-0.00444371,0.00115418,-0.00495498,-0.05
 118595,-0.00456154,0.00966801,-0.01303268,-0.01251260,-0.00208313,0.00
 047291,-0.00100999,-0.00952546,0.08388072,-0.00161336,0.00281991,-0.00
 127872,-0.00181406,0.00221122,-0.00024171,-0.00666373,0.00696654,-0.01
 820656,0.00431882,-0.00145830,-0.00008551,-0.00332899,-0.00112934,0.00
 258515,0.00951590,-0.01166254,-0.02118223,0.00301506,-0.00462041,-0.00
 291468,0.01141541,0.00751658,0.04297186,-0.00830467,0.01217508,-0.0040
 6949,-0.00280758,0.00179409,0.00103626,-0.00421581,-0.00819005,0.00739
 288,0.00090356,0.00410229,-0.00134836,-0.00065342,-0.00810032,-0.00150
 956,-0.00133220,-0.00042359,0.00074884,-0.00333255,0.00328477,0.009234
 44,-0.03940712,-0.00771832,-0.01484505,0.05914980,0.01063425,-0.031599
 74,0.00326328,-0.00084203,-0.00335181,-0.00142638,-0.00932955,-0.01168
 043,0.00432073,-0.00213865,-0.00472846,-0.00020533,-0.00119491,-0.0027
 4790,-0.00124559,0.00091976,0.00017901,0.00113322,0.00315920,-0.011132
 39,-0.01212337,-0.00428414,-0.00533710,-0.00064367,0.00307605,0.070398
 81,-0.00298632,0.00485210,0.00303386,0.00162269,0.00134414,-0.00213677
 ,0.00679123,0.00676338,-0.00571029,-0.00475764,-0.00341147,-0.00090443
 ,0.00136554,-0.00109405,-0.00238593,-0.00158756,-0.00459758,-0.0019638
 9,0.00955510,-0.00971062,-0.01810011,-0.01336308,-0.00107301,-0.001647
 60,0.00336004,0.00692711,0.02981515\\0.00002324,0.00003505,-0.00001321
 ,0.00004531,0.00000897,-0.00001926,-0.00002040,0.00000139,0.00000760,0
 .00000498,-0.00004781,-0.00001403,-0.00001509,0.00003251,0.00002092,-0
 .00000030,-0.00001496,0.00003901,-0.00001463,0.00000584,0.00000072,-0.
 00002708,-0.00000897,0.00001054,0.00000398,-0.00001202,-0.00003230\\\@


 ALMOST ALL THE CHEMICAL PROCESSES WHICH OCCUR IN NATURE,
 WHETHER IN ANIMAL OR VEGETABLE ORGANISMS,
 OR IN THE NON-LIVING SURFACE OF THE EARTH ... 
 TAKE PLACE BETWEEN SUBSTANCES IN SOLUTION

                                    -- W. OSTWALD, 1890
 Job cpu time:       0 days  3 hours 45 minutes 10.2 seconds.
 File lengths (MBytes):  RWF=    299 Int=      0 D2E=      0 Chk=     16 Scr=      1
 Normal termination of Gaussian 09 at Tue Mar  6 15:21:05 2018.
