 Entering Gaussian System, Link 0=/share/apps/mg09/g09
 Initial command:
 /share/apps//mg09/l1.exe "/state/partition1/gauss_tmp/Gau-32449.inp" -scrdir="/state/partition1/gauss_tmp/"
 Entering Link 1 = /share/apps//mg09/l1.exe PID=     32451.
  
 Copyright (c) 1988,1990,1992,1993,1995,1998,2003,2009,2013,
            Gaussian, Inc.  All Rights Reserved.
  
 This is part of the Gaussian(R) 09 program.  It is based on
 the Gaussian(R) 03 system (copyright 2003, Gaussian, Inc.),
 the Gaussian(R) 98 system (copyright 1998, Gaussian, Inc.),
 the Gaussian(R) 94 system (copyright 1995, Gaussian, Inc.),
 the Gaussian 92(TM) system (copyright 1992, Gaussian, Inc.),
 the Gaussian 90(TM) system (copyright 1990, Gaussian, Inc.),
 the Gaussian 88(TM) system (copyright 1988, Gaussian, Inc.),
 the Gaussian 86(TM) system (copyright 1986, Carnegie Mellon
 University), and the Gaussian 82(TM) system (copyright 1983,
 Carnegie Mellon University). Gaussian is a federally registered
 trademark of Gaussian, Inc.
  
 This software contains proprietary and confidential information,
 including trade secrets, belonging to Gaussian, Inc.
  
 This software is provided under written license and may be
 used, copied, transmitted, or stored only in accord with that
 written license.
  
 The following legend is applicable only to US Government
 contracts under FAR:
  
                    RESTRICTED RIGHTS LEGEND
  
 Use, reproduction and disclosure by the US Government is
 subject to restrictions as set forth in subparagraphs (a)
 and (c) of the Commercial Computer Software - Restricted
 Rights clause in FAR 52.227-19.
  
 Gaussian, Inc.
 340 Quinnipiac St., Bldg. 40, Wallingford CT 06492
  
  
 ---------------------------------------------------------------
 Warning -- This program may not be used in any manner that
 competes with the business of Gaussian, Inc. or will provide
 assistance to any competitor of Gaussian, Inc.  The licensee
 of this program is prohibited from giving any competitor of
 Gaussian, Inc. access to this program.  By using this program,
 the user acknowledges that Gaussian, Inc. is engaged in the
 business of creating and licensing software in the field of
 computational chemistry and represents and warrants to the
 licensee that it is not a competitor of Gaussian, Inc. and that
 it will not use this program in any manner prohibited above.
 ---------------------------------------------------------------
  

 Cite this work as:
 Gaussian 09, Revision D.01,
 M. J. Frisch, G. W. Trucks, H. B. Schlegel, G. E. Scuseria, 
 M. A. Robb, J. R. Cheeseman, G. Scalmani, V. Barone, B. Mennucci, 
 G. A. Petersson, H. Nakatsuji, M. Caricato, X. Li, H. P. Hratchian, 
 A. F. Izmaylov, J. Bloino, G. Zheng, J. L. Sonnenberg, M. Hada, 
 M. Ehara, K. Toyota, R. Fukuda, J. Hasegawa, M. Ishida, T. Nakajima, 
 Y. Honda, O. Kitao, H. Nakai, T. Vreven, J. A. Montgomery, Jr., 
 J. E. Peralta, F. Ogliaro, M. Bearpark, J. J. Heyd, E. Brothers, 
 K. N. Kudin, V. N. Staroverov, T. Keith, R. Kobayashi, J. Normand, 
 K. Raghavachari, A. Rendell, J. C. Burant, S. S. Iyengar, J. Tomasi, 
 M. Cossi, N. Rega, J. M. Millam, M. Klene, J. E. Knox, J. B. Cross, 
 V. Bakken, C. Adamo, J. Jaramillo, R. Gomperts, R. E. Stratmann, 
 O. Yazyev, A. J. Austin, R. Cammi, C. Pomelli, J. W. Ochterski, 
 R. L. Martin, K. Morokuma, V. G. Zakrzewski, G. A. Voth, 
 P. Salvador, J. J. Dannenberg, S. Dapprich, A. D. Daniels, 
 O. Farkas, J. B. Foresman, J. V. Ortiz, J. Cioslowski, 
 and D. J. Fox, Gaussian, Inc., Wallingford CT, 2013.
 
 ******************************************
 Gaussian 09:  ES64L-G09RevD.01 24-Apr-2013
                 8-Mar-2018 
 ******************************************
 %NProcShared=4
 Will use up to    4 processors via shared memory.
 %LindaWorkers=compute-0-4
 %chk=Isomer_49.chk
 %NProc=4
 Will use up to    4 processors via shared memory.
 %mem=4GB
 SetLPE:  input flags=" -vv -opt "Tsnet.Node.lindarsharg: ssh" "
 SetLPE:    new flags=" -vv -opt "Tsnet.Node.lindarsharg: ssh"  -nodelist 'compute-0-4.local'"
 Will use up to    1 processors via Linda.
 ----------------------------------------------------------------------
 #p PBE1PBE/Def2TZVP scf=(maxcycle=768) opt=(cartesian,maxcycle=512) fr
 eq
 ----------------------------------------------------------------------
 1/6=512,10=7,14=-1,18=10,26=3,38=1/1,3;
 2/12=2,17=6,18=5,29=2,40=1/2;
 3/5=44,7=101,11=2,16=1,25=1,30=1,71=1,74=-13/1,2,3;
 4//1;
 5/5=2,7=768,38=5/2;
 6/7=2,8=2,9=2,10=2,28=1/1;
 7/7=1,29=1/1,2,3,16;
 1/6=512,10=7,14=-1,18=10,26=3/3(2);
 2/29=1/2;
 99/12=1/99;
 2/29=1/2;
 3/5=44,7=101,11=2,16=1,25=1,30=1,71=1,74=-13/1,2,3;
 4/5=5,16=3,69=1/1;
 5/5=2,7=768,38=5/2;
 7/7=1/1,2,3,16;
 1/6=512,14=-1,18=10,26=3/3(-5);
 2/29=1/2;
 6/7=2,8=2,9=2,10=2,19=2,28=1/1;
 99/9=1,12=1/99;
 Leave Link    1 at Thu Mar  8 06:52:28 2018, MaxMem=   536870912 cpu:         0.2
 (Enter /share/apps//mg09/l101.exe)
 ---------------------
 01Final_coords.xyz_49
 ---------------------
 Symbolic Z-matrix:
 Charge =  0 Multiplicity = 1
 83                    1.58246  -1.57285  -0.70574 
 50                   -2.5286   -0.01623   1.32868 
 83                    1.56137   1.59282  -0.70601 
 32                   -0.1683    1.46545   2.07039 
 32                   -0.40436  -0.0024   -2.35995 
 83                   -1.38456   2.0859   -0.5829 
 50                    2.32215   0.01541   1.80964 
 32                   -0.14943  -1.46686   2.07058 
 83                   -1.35651  -2.10391  -0.58256 
 
 NAtoms=      9 NQM=        9 NQMF=       0 NMMI=      0 NMMIF=      0
                NMic=       0 NMicF=      0.
                    Isotopes and Nuclear Properties:
 (Nuclear quadrupole moments (NQMom) in fm**2, nuclear magnetic moments (NMagM)
  in nuclear magnetons)

  Atom         1           2           3           4           5           6           7           8           9
 IAtWgt=         209         118         209          74          74         209         118          74         209
 AtmWgt= 208.9804000 117.9018000 208.9804000  73.9211788  73.9211788 208.9804000 117.9018000  73.9211788 208.9804000
 NucSpn=           9           0           9           0           0           9           0           0           9
 AtZEff=   0.0000000   0.0000000   0.0000000   0.0000000   0.0000000   0.0000000   0.0000000   0.0000000   0.0000000
 NQMom=  -51.6000000   0.0000000 -51.6000000   0.0000000   0.0000000 -51.6000000   0.0000000   0.0000000 -51.6000000
 NMagM=    4.1106000   0.0000000   4.1106000   0.0000000   0.0000000   4.1106000   0.0000000   0.0000000   4.1106000
 AtZNuc=  83.0000000  50.0000000  83.0000000  32.0000000  32.0000000  83.0000000  50.0000000  32.0000000  83.0000000
 Leave Link  101 at Thu Mar  8 06:52:28 2018, MaxMem=   536870912 cpu:         0.3
 (Enter /share/apps//mg09/l103.exe)

 GradGradGradGradGradGradGradGradGradGradGradGradGradGradGradGradGradGrad
 Berny optimization.
 Initialization pass.
 No Z-matrix variables, so optimization will use Cartesian coordinates.
 Trust Radius=3.00D-01 FncErr=1.00D-07 GrdErr=1.00D-06
 Number of steps in this run=    100 maximum allowed number of steps=    100.
 GradGradGradGradGradGradGradGradGradGradGradGradGradGradGradGradGradGrad

 Leave Link  103 at Thu Mar  8 06:52:28 2018, MaxMem=   536870912 cpu:         0.1
 (Enter /share/apps//mg09/l202.exe)
 ---------------------------------------------------------------------------------------------------
                            Z-MATRIX (ANGSTROMS AND DEGREES)
   CD    Cent   Atom    N1       Length/X        N2       Alpha/Y        N3        Beta/Z          J
 ---------------------------------------------------------------------------------------------------
      1      1  Bi       0   1.582458         -1.572850         -0.705739
      2      2  Sn       0  -2.528601         -0.016226          1.328677
      3      3  Bi       0   1.561374          1.592819         -0.706014
      4      4  Ge       0  -0.168295          1.465446          2.070388
      5      5  Ge       0  -0.404361         -0.002395         -2.359945
      6      6  Bi       0  -1.384559          2.085897         -0.582900
      7      7  Sn       0   2.322148          0.015407          1.809639
      8      8  Ge       0  -0.149429         -1.466857          2.070583
      9      9  Bi       0  -1.356508         -2.103905         -0.582559
 ---------------------------------------------------------------------------------------------------
                         Z-Matrix orientation:                         
 ---------------------------------------------------------------------
 Center     Atomic      Atomic             Coordinates (Angstroms)
 Number     Number       Type             X           Y           Z
 ---------------------------------------------------------------------
      1         83           0        1.582458   -1.572850   -0.705739
      2         50           0       -2.528601   -0.016226    1.328677
      3         83           0        1.561374    1.592819   -0.706014
      4         32           0       -0.168295    1.465446    2.070388
      5         32           0       -0.404361   -0.002395   -2.359945
      6         83           0       -1.384559    2.085897   -0.582900
      7         50           0        2.322148    0.015407    1.809639
      8         32           0       -0.149429   -1.466857    2.070583
      9         83           0       -1.356508   -2.103905   -0.582559
 ---------------------------------------------------------------------
                    Distance matrix (angstroms):
                    1          2          3          4          5
     1  Bi   0.000000
     2  Sn   4.843835   0.000000
     3  Bi   3.165739   4.843231   0.000000
     4  Ge   4.472500   2.883840   3.273589   0.000000
     5  Ge   3.024926   4.256585   3.023956   4.673129   0.000000
     6  Bi   4.712187   3.062985   2.989449   2.983990   2.911982
     7  Sn   3.065425   4.874638   3.065211   2.893598   4.981927
     8  Ge   3.273932   2.883611   4.471907   2.932364   4.673245
     9  Bi   2.989099   3.063499   4.711162   4.603286   2.912392
                    6          7          8          9
     6  Bi   0.000000
     7  Sn   4.873484   0.000000
     8  Ge   4.603105   2.893768   0.000000
     9  Bi   4.189896   4.873049   2.983627   0.000000
 Stoichiometry    Bi4Ge3Sn2
 Framework group  C1[X(Bi4Ge3Sn2)]
 Deg. of freedom    21
 Full point group                 C1      NOp   1
 Largest Abelian subgroup         C1      NOp   1
 Largest concise Abelian subgroup C1      NOp   1
                         Standard orientation:                         
 ---------------------------------------------------------------------
 Center     Atomic      Atomic             Coordinates (Angstroms)
 Number     Number       Type             X           Y           Z
 ---------------------------------------------------------------------
      1         83           0       -1.582465    1.572843   -0.705739
      2         50           0        2.528601    0.016237    1.328677
      3         83           0       -1.561367   -1.592826   -0.706014
      4         32           0        0.168302   -1.465445    2.070388
      5         32           0        0.404361    0.002397   -2.359945
      6         83           0        1.384568   -2.085891   -0.582900
      7         50           0       -2.322148   -0.015417    1.809639
      8         32           0        0.149423    1.466858    2.070583
      9         83           0        1.356499    2.103911   -0.582559
 ---------------------------------------------------------------------
 Rotational constants (GHZ):      0.0974105      0.0969602      0.0786854
 Leave Link  202 at Thu Mar  8 06:52:28 2018, MaxMem=   536870912 cpu:         0.0
 (Enter /share/apps//mg09/l301.exe)
 Standard basis: def2TZVP (5D, 7F)
 Ernie: Thresh=  0.10000D-02 Tol=  0.10000D-05 Strict=F.
 There are   519 symmetry adapted cartesian basis functions of A   symmetry.
 There are   444 symmetry adapted basis functions of A   symmetry.
   444 basis functions,   963 primitive gaussians,   519 cartesian basis functions
   116 alpha electrons      116 beta electrons
       nuclear repulsion energy      3546.1655816362 Hartrees.
 IExCor= 1009 DFT=T Ex+Corr=PBE1PBE ExCW=0 ScaHFX=  0.250000
 ScaDFX=  0.750000  0.750000  1.000000  1.000000 ScalE2=  1.000000  1.000000
 IRadAn=      0 IRanWt=     -1 IRanGd=            0 ICorTp=0 IEmpDi=  4
 NAtoms=    9 NActive=    9 NUniq=    9 SFac= 1.00D+00 NAtFMM=   60 NAOKFM=F Big=F
 Integral buffers will be    131072 words long.
 Raffenetti 2 integral format.
 Two-electron integral symmetry is turned on.
 Leave Link  301 at Thu Mar  8 06:52:28 2018, MaxMem=   536870912 cpu:         0.2
 (Enter /share/apps//mg09/l302.exe)
 NPDir=0 NMtPBC=     1 NCelOv=     1 NCel=       1 NClECP=     1 NCelD=      1
         NCelK=      1 NCelE2=     1 NClLst=     1 CellRange=     0.0.
 One-electron integrals computed using PRISM.
   1 Symmetry operations used in ECPInt.
 ECPInt:  NShTT=   10440 NPrTT=   41973 LenC2=    9650 LenP2D=   27570.
 LDataN:  DoStor=T MaxTD1= 8 Len=  415
 NBasis=   444 RedAO= T EigKep=  1.01D-03  NBF=   444
 NBsUse=   444 1.00D-06 EigRej= -1.00D+00 NBFU=   444
 Precomputing XC quadrature grid using
 IXCGrd= 4 IRadAn=           0 IRanWt=          -1 IRanGd=           0 AccXCQ= 0.00D+00.
 Defaulting to unpruned grid for atomic number  83.
 Defaulting to unpruned grid for atomic number  50.
 Defaulting to unpruned grid for atomic number  83.
 Generated NRdTot=       0 NPtTot=           0 NUsed=           0 NTot=          32
 NSgBfM=   498   498   498   498   498 MxSgAt=     9 MxSgA2=     9.
 Leave Link  302 at Thu Mar  8 06:52:35 2018, MaxMem=   536870912 cpu:        25.6
 (Enter /share/apps//mg09/l303.exe)
 DipDrv:  MaxL=1.
 Leave Link  303 at Thu Mar  8 06:52:35 2018, MaxMem=   536870912 cpu:         0.2
 (Enter /share/apps//mg09/l401.exe)
 ExpMin= 4.62D-02 ExpMax= 4.66D+05 ExpMxC= 4.50D+03 IAcc=2 IRadAn=         4 AccDes= 0.00D+00
 Harris functional with IExCor= 1009 and IRadAn=       4 diagonalized for initial guess.
 HarFok:  IExCor= 1009 AccDes= 0.00D+00 IRadAn=         4 IDoV= 1 UseB2=F ITyADJ=14
 ICtDFT=  3500011 ScaDFX=  1.000000  1.000000  1.000000  1.000000
 Defaulting to unpruned grid for atomic number  83.
 Defaulting to unpruned grid for atomic number  83.
 Defaulting to unpruned grid for atomic number  83.
 Defaulting to unpruned grid for atomic number  83.
 FoFCou: FMM=F IPFlag=           0 FMFlag=      100000 FMFlg1=           0
         NFxFlg=           0 DoJE=T BraDBF=F KetDBF=T FulRan=T
         wScrn=  0.000000 ICntrl=     500 IOpCl=  0 I1Cent=   200000004 NGrid=           0
         NMat0=    1 NMatS0=      1 NMatT0=    0 NMatD0=    1 NMtDS0=    0 NMtDT0=    0
 Petite list used in FoFCou.
 Harris En= -7518.60646551798    
 JPrj=0 DoOrth=F DoCkMO=F.
 Leave Link  401 at Thu Mar  8 06:52:37 2018, MaxMem=   536870912 cpu:        10.1
 (Enter /share/apps//mg09/l502.exe)
 Closed shell SCF:
 Using DIIS extrapolation, IDIIS=  1040.
 Integral symmetry usage will be decided dynamically.
 IVT=     1410107 IEndB=     1410107 NGot=   536870912 MDV=   536322046
 LenX=   536322046 LenY=   536052166
 Requested convergence on RMS density matrix=1.00D-08 within 768 cycles.
 Requested convergence on MAX density matrix=1.00D-06.
 Requested convergence on             energy=1.00D-06.
 No special actions if energy rises.
 Fock matrices will be formed incrementally for  20 cycles.

 Cycle   1  Pass 1  IDiag  1:
 FoFJK:  IHMeth= 1 ICntrl=       0 DoSepK=F KAlg= 0 I1Cent=   0 FoldK=F
 IRaf= 880000000 NMat=   1 IRICut=       1 DoRegI=T DoRafI=F ISym2E= 0.
 FoFCou: FMM=F IPFlag=           0 FMFlag=      100000 FMFlg1=           0
         NFxFlg=           0 DoJE=F BraDBF=F KetDBF=F FulRan=T
         wScrn=  0.000000 ICntrl=       0 IOpCl=  0 I1Cent=           0 NGrid=           0
         NMat0=    1 NMatS0=      1 NMatT0=    0 NMatD0=    1 NMtDS0=    0 NMtDT0=    0
 Symmetry not used in FoFCou.
 Defaulting to unpruned grid for atomic number  83.
 Defaulting to unpruned grid for atomic number  83.
 Defaulting to unpruned grid for atomic number  83.
 Defaulting to unpruned grid for atomic number  83.
 E= -7517.22283939048    
 DIIS: error= 3.59D-02 at cycle   1 NSaved=   1.
 NSaved= 1 IEnMin= 1 EnMin= -7517.22283939048     IErMin= 1 ErrMin= 3.59D-02
 ErrMax= 3.59D-02  0.00D+00 EMaxC= 1.00D-01 BMatC= 1.47D+00 BMatP= 1.47D+00
 IDIUse=3 WtCom= 6.41D-01 WtEn= 3.59D-01
 Coeff-Com:  0.100D+01
 Coeff-En:   0.100D+01
 Coeff:      0.100D+01
 Gap=     0.140 Goal=   None    Shift=    0.000
 GapD=    0.140 DampG=1.000 DampE=0.500 DampFc=0.5000 IDamp=-1.
 Damping current iteration by 5.00D-01
 RMSDP=5.88D-03 MaxDP=2.43D-01              OVMax= 9.80D-01

 Cycle   2  Pass 1  IDiag  1:
 RMSU=  2.94D-03    CP:  1.00D+00
 E= -7516.92530745051     Delta-E=        0.297531939968 Rises=F Damp=T
 DIIS: error= 1.64D-02 at cycle   2 NSaved=   2.
 NSaved= 2 IEnMin= 1 EnMin= -7517.22283939048     IErMin= 2 ErrMin= 1.64D-02
 ErrMax= 1.64D-02  0.00D+00 EMaxC= 1.00D-01 BMatC= 3.21D-01 BMatP= 1.47D+00
 IDIUse=3 WtCom= 8.36D-01 WtEn= 1.64D-01
 Coeff-Com:  0.173D+00 0.827D+00
 Coeff-En:   0.642D+00 0.358D+00
 Coeff:      0.250D+00 0.750D+00
 Gap=    -0.237 Goal=   None    Shift=    0.000
 RMSDP=4.08D-03 MaxDP=1.69D-01 DE= 2.98D-01 OVMax= 8.53D-01

 Cycle   3  Pass 1  IDiag  1:
 RMSU=  3.23D-03    CP:  1.01D+00  1.48D-01
 E= -7515.51548934369     Delta-E=        1.409818106824 Rises=F Damp=F
 DIIS: error= 4.67D-02 at cycle   3 NSaved=   3.
 NSaved= 3 IEnMin= 1 EnMin= -7517.22283939048     IErMin= 2 ErrMin= 1.64D-02
 ErrMax= 4.67D-02  0.00D+00 EMaxC= 1.00D-01 BMatC= 1.78D+00 BMatP= 3.21D-01
 IDIUse=2 WtCom= 0.00D+00 WtEn= 1.00D+00
 EnCoef did    11 forward-backward iterations
 Coeff-En:   0.559D+00 0.389D+00 0.522D-01
 Coeff:      0.559D+00 0.389D+00 0.522D-01
 Gap=     0.200 Goal=   None    Shift=    0.000
 RMSDP=3.46D-03 MaxDP=1.41D-01 DE= 1.41D+00 OVMax= 4.33D-01

 Cycle   4  Pass 1  IDiag  1:
 RMSU=  1.81D-03    CP:  1.01D+00  7.62D-01  2.75D-01
 E= -7517.66758599725     Delta-E=       -2.152096653568 Rises=F Damp=F
 DIIS: error= 1.26D-02 at cycle   4 NSaved=   4.
 NSaved= 4 IEnMin= 4 EnMin= -7517.66758599725     IErMin= 4 ErrMin= 1.26D-02
 ErrMax= 1.26D-02  0.00D+00 EMaxC= 1.00D-01 BMatC= 3.14D-01 BMatP= 3.21D-01
 IDIUse=3 WtCom= 8.74D-01 WtEn= 1.26D-01
 Coeff-Com:  0.327D+00-0.345D-01-0.368D-01 0.745D+00
 Coeff-En:   0.163D+00 0.000D+00 0.000D+00 0.837D+00
 Coeff:      0.306D+00-0.301D-01-0.321D-01 0.756D+00
 Gap=     0.107 Goal=   None    Shift=    0.000
 RMSDP=1.43D-03 MaxDP=6.41D-02 DE=-2.15D+00 OVMax= 1.14D-01

 Cycle   5  Pass 1  IDiag  1:
 RMSU=  8.12D-04    CP:  1.00D+00  5.46D-01  3.26D-02  6.63D-01
 E= -7517.72631930573     Delta-E=       -0.058733308480 Rises=F Damp=F
 DIIS: error= 6.89D-03 at cycle   5 NSaved=   5.
 NSaved= 5 IEnMin= 5 EnMin= -7517.72631930573     IErMin= 5 ErrMin= 6.89D-03
 ErrMax= 6.89D-03  0.00D+00 EMaxC= 1.00D-01 BMatC= 7.92D-02 BMatP= 3.14D-01
 IDIUse=3 WtCom= 9.31D-01 WtEn= 6.89D-02
 Coeff-Com:  0.180D+00-0.106D+00-0.153D-01 0.498D+00 0.443D+00
 Coeff-En:   0.000D+00 0.000D+00 0.000D+00 0.354D+00 0.646D+00
 Coeff:      0.168D+00-0.983D-01-0.143D-01 0.488D+00 0.457D+00
 Gap=     0.125 Goal=   None    Shift=    0.000
 RMSDP=9.36D-04 MaxDP=4.95D-02 DE=-5.87D-02 OVMax= 1.13D-01

 Cycle   6  Pass 1  IDiag  1:
 RMSU=  4.69D-04    CP:  1.00D+00  5.26D-01  1.38D-01  7.31D-01  1.20D-01
 E= -7517.78467356440     Delta-E=       -0.058354258668 Rises=F Damp=F
 DIIS: error= 4.11D-03 at cycle   6 NSaved=   6.
 NSaved= 6 IEnMin= 6 EnMin= -7517.78467356440     IErMin= 6 ErrMin= 4.11D-03
 ErrMax= 4.11D-03  0.00D+00 EMaxC= 1.00D-01 BMatC= 2.08D-02 BMatP= 7.92D-02
 IDIUse=3 WtCom= 9.59D-01 WtEn= 4.11D-02
 Coeff-Com:  0.583D-01-0.622D-01 0.810D-02 0.215D+00 0.350D+00 0.431D+00
 Coeff-En:   0.000D+00 0.000D+00 0.000D+00 0.000D+00 0.254D+00 0.746D+00
 Coeff:      0.559D-01-0.597D-01 0.777D-02 0.206D+00 0.346D+00 0.444D+00
 Gap=     0.121 Goal=   None    Shift=    0.000
 RMSDP=4.79D-04 MaxDP=1.93D-02 DE=-5.84D-02 OVMax= 5.93D-02

 Cycle   7  Pass 1  IDiag  1:
 RMSU=  2.52D-04    CP:  1.00D+00  5.19D-01  1.25D-01  7.12D-01  4.51D-01
                    CP:  3.61D-01
 E= -7517.79991393601     Delta-E=       -0.015240371611 Rises=F Damp=F
 DIIS: error= 2.38D-03 at cycle   7 NSaved=   7.
 NSaved= 7 IEnMin= 7 EnMin= -7517.79991393601     IErMin= 7 ErrMin= 2.38D-03
 ErrMax= 2.38D-03  0.00D+00 EMaxC= 1.00D-01 BMatC= 4.94D-03 BMatP= 2.08D-02
 IDIUse=3 WtCom= 9.76D-01 WtEn= 2.38D-02
 Coeff-Com:  0.298D-01-0.498D-01 0.418D-02 0.117D+00 0.209D+00 0.347D+00
 Coeff-Com:  0.343D+00
 Coeff-En:   0.000D+00 0.000D+00 0.000D+00 0.000D+00 0.000D+00 0.284D+00
 Coeff-En:   0.716D+00
 Coeff:      0.291D-01-0.486D-01 0.408D-02 0.114D+00 0.204D+00 0.345D+00
 Coeff:      0.352D+00
 Gap=     0.121 Goal=   None    Shift=    0.000
 RMSDP=2.22D-04 MaxDP=1.16D-02 DE=-1.52D-02 OVMax= 2.58D-02

 Cycle   8  Pass 1  IDiag  1:
 RMSU=  7.00D-05    CP:  1.00D+00  5.23D-01  1.23D-01  7.10D-01  3.85D-01
                    CP:  5.57D-01  2.81D-01
 E= -7517.80565883463     Delta-E=       -0.005744898621 Rises=F Damp=F
 DIIS: error= 7.57D-04 at cycle   8 NSaved=   8.
 NSaved= 8 IEnMin= 8 EnMin= -7517.80565883463     IErMin= 8 ErrMin= 7.57D-04
 ErrMax= 7.57D-04  0.00D+00 EMaxC= 1.00D-01 BMatC= 7.00D-04 BMatP= 4.94D-03
 IDIUse=3 WtCom= 9.92D-01 WtEn= 7.57D-03
 Coeff-Com:  0.121D-01-0.244D-01 0.452D-02 0.403D-01 0.668D-01 0.154D+00
 Coeff-Com:  0.262D+00 0.485D+00
 Coeff-En:   0.000D+00 0.000D+00 0.000D+00 0.000D+00 0.000D+00 0.000D+00
 Coeff-En:   0.128D+00 0.872D+00
 Coeff:      0.120D-01-0.242D-01 0.449D-02 0.400D-01 0.663D-01 0.153D+00
 Coeff:      0.261D+00 0.488D+00
 Gap=     0.120 Goal=   None    Shift=    0.000
 RMSDP=6.61D-05 MaxDP=3.60D-03 DE=-5.74D-03 OVMax= 8.62D-03

 Cycle   9  Pass 1  IDiag  1:
 RMSU=  3.12D-05    CP:  1.00D+00  5.21D-01  1.33D-01  7.13D-01  3.88D-01
                    CP:  5.22D-01  4.32D-01  6.39D-01
 E= -7517.80646924037     Delta-E=       -0.000810405738 Rises=F Damp=F
 DIIS: error= 1.79D-04 at cycle   9 NSaved=   9.
 NSaved= 9 IEnMin= 9 EnMin= -7517.80646924037     IErMin= 9 ErrMin= 1.79D-04
 ErrMax= 1.79D-04  0.00D+00 EMaxC= 1.00D-01 BMatC= 4.22D-05 BMatP= 7.00D-04
 IDIUse=3 WtCom= 9.98D-01 WtEn= 1.79D-03
 Coeff-Com:  0.372D-02-0.777D-02 0.872D-03 0.433D-02-0.865D-02 0.102D-01
 Coeff-Com:  0.568D-01 0.222D+00 0.718D+00
 Coeff-En:   0.000D+00 0.000D+00 0.000D+00 0.000D+00 0.000D+00 0.000D+00
 Coeff-En:   0.000D+00 0.000D+00 0.100D+01
 Coeff:      0.371D-02-0.775D-02 0.870D-03 0.433D-02-0.863D-02 0.102D-01
 Coeff:      0.567D-01 0.222D+00 0.719D+00
 Gap=     0.121 Goal=   None    Shift=    0.000
 RMSDP=2.33D-05 MaxDP=1.43D-03 DE=-8.10D-04 OVMax= 2.50D-03

 Cycle  10  Pass 1  IDiag  1:
 RMSU=  1.50D-05    CP:  1.00D+00  5.19D-01  1.34D-01  7.11D-01  3.78D-01
                    CP:  5.25D-01  4.48D-01  7.59D-01  6.97D-01
 E= -7517.80651272674     Delta-E=       -0.000043486369 Rises=F Damp=F
 DIIS: error= 9.75D-05 at cycle  10 NSaved=  10.
 NSaved=10 IEnMin=10 EnMin= -7517.80651272674     IErMin=10 ErrMin= 9.75D-05
 ErrMax= 9.75D-05  0.00D+00 EMaxC= 1.00D-01 BMatC= 1.09D-05 BMatP= 4.22D-05
 IDIUse=1 WtCom= 1.00D+00 WtEn= 0.00D+00
 Coeff-Com:  0.757D-03-0.169D-02 0.309D-03-0.280D-02-0.144D-01-0.161D-01
 Coeff-Com: -0.998D-02 0.521D-01 0.454D+00 0.538D+00
 Coeff:      0.757D-03-0.169D-02 0.309D-03-0.280D-02-0.144D-01-0.161D-01
 Coeff:     -0.998D-02 0.521D-01 0.454D+00 0.538D+00
 Gap=     0.120 Goal=   None    Shift=    0.000
 RMSDP=8.50D-06 MaxDP=6.22D-04 DE=-4.35D-05 OVMax= 8.92D-04

 Cycle  11  Pass 1  IDiag  1:
 RMSU=  3.33D-06    CP:  1.00D+00  5.18D-01  1.34D-01  7.10D-01  3.77D-01
                    CP:  5.29D-01  4.41D-01  7.56D-01  8.43D-01  6.59D-01
 E= -7517.80652505737     Delta-E=       -0.000012330633 Rises=F Damp=F
 DIIS: error= 2.29D-05 at cycle  11 NSaved=  11.
 NSaved=11 IEnMin=11 EnMin= -7517.80652505737     IErMin=11 ErrMin= 2.29D-05
 ErrMax= 2.29D-05  0.00D+00 EMaxC= 1.00D-01 BMatC= 4.55D-07 BMatP= 1.09D-05
 IDIUse=1 WtCom= 1.00D+00 WtEn= 0.00D+00
 Coeff-Com:  0.202D-03-0.410D-03 0.127D-03-0.119D-02-0.530D-02-0.819D-02
 Coeff-Com: -0.839D-02 0.232D-02 0.134D+00 0.206D+00 0.680D+00
 Coeff:      0.202D-03-0.410D-03 0.127D-03-0.119D-02-0.530D-02-0.819D-02
 Coeff:     -0.839D-02 0.232D-02 0.134D+00 0.206D+00 0.680D+00
 Gap=     0.120 Goal=   None    Shift=    0.000
 RMSDP=2.13D-06 MaxDP=1.21D-04 DE=-1.23D-05 OVMax= 2.23D-04

 Cycle  12  Pass 1  IDiag  1:
 RMSU=  1.28D-06    CP:  1.00D+00  5.18D-01  1.35D-01  7.10D-01  3.78D-01
                    CP:  5.28D-01  4.42D-01  7.56D-01  8.75D-01  6.77D-01
                    CP:  8.73D-01
 E= -7517.80652561055     Delta-E=       -0.000000553171 Rises=F Damp=F
 DIIS: error= 5.56D-06 at cycle  12 NSaved=  12.
 NSaved=12 IEnMin=12 EnMin= -7517.80652561055     IErMin=12 ErrMin= 5.56D-06
 ErrMax= 5.56D-06  0.00D+00 EMaxC= 1.00D-01 BMatC= 4.81D-08 BMatP= 4.55D-07
 IDIUse=1 WtCom= 1.00D+00 WtEn= 0.00D+00
 Coeff-Com:  0.638D-04-0.107D-03 0.152D-04-0.159D-05-0.455D-03-0.158D-02
 Coeff-Com: -0.267D-02-0.578D-02-0.120D-02 0.304D-01 0.313D+00 0.669D+00
 Coeff:      0.638D-04-0.107D-03 0.152D-04-0.159D-05-0.455D-03-0.158D-02
 Coeff:     -0.267D-02-0.578D-02-0.120D-02 0.304D-01 0.313D+00 0.669D+00
 Gap=     0.120 Goal=   None    Shift=    0.000
 RMSDP=9.15D-07 MaxDP=6.88D-05 DE=-5.53D-07 OVMax= 9.72D-05

 Cycle  13  Pass 1  IDiag  1:
 RMSU=  6.66D-07    CP:  1.00D+00  5.18D-01  1.35D-01  7.10D-01  3.77D-01
                    CP:  5.28D-01  4.42D-01  7.57D-01  8.69D-01  6.85D-01
                    CP:  9.28D-01  6.76D-01
 E= -7517.80652564393     Delta-E=       -0.000000033389 Rises=F Damp=F
 DIIS: error= 4.31D-06 at cycle  13 NSaved=  13.
 NSaved=13 IEnMin=13 EnMin= -7517.80652564393     IErMin=13 ErrMin= 4.31D-06
 ErrMax= 4.31D-06  0.00D+00 EMaxC= 1.00D-01 BMatC= 1.82D-08 BMatP= 4.81D-08
 IDIUse=1 WtCom= 1.00D+00 WtEn= 0.00D+00
 Coeff-Com:  0.246D-04-0.282D-04 0.321D-05 0.493D-04-0.294D-04-0.545D-03
 Coeff-Com: -0.117D-02-0.382D-02-0.104D-01 0.399D-02 0.147D+00 0.479D+00
 Coeff-Com:  0.386D+00
 Coeff:      0.246D-04-0.282D-04 0.321D-05 0.493D-04-0.294D-04-0.545D-03
 Coeff:     -0.117D-02-0.382D-02-0.104D-01 0.399D-02 0.147D+00 0.479D+00
 Coeff:      0.386D+00
 Gap=     0.120 Goal=   None    Shift=    0.000
 RMSDP=4.79D-07 MaxDP=2.49D-05 DE=-3.34D-08 OVMax= 5.83D-05

 Cycle  14  Pass 1  IDiag  1:
 RMSU=  2.88D-07    CP:  1.00D+00  5.18D-01  1.35D-01  7.10D-01  3.77D-01
                    CP:  5.28D-01  4.42D-01  7.58D-01  8.70D-01  6.92D-01
                    CP:  9.35D-01  7.98D-01  5.38D-01
 E= -7517.80652566495     Delta-E=       -0.000000021013 Rises=F Damp=F
 DIIS: error= 2.47D-06 at cycle  14 NSaved=  14.
 NSaved=14 IEnMin=14 EnMin= -7517.80652566495     IErMin=14 ErrMin= 2.47D-06
 ErrMax= 2.47D-06  0.00D+00 EMaxC= 1.00D-01 BMatC= 3.60D-09 BMatP= 1.82D-08
 IDIUse=1 WtCom= 1.00D+00 WtEn= 0.00D+00
 Coeff-Com:  0.649D-05 0.140D-05 0.463D-06 0.316D-04 0.408D-04-0.145D-03
 Coeff-Com: -0.414D-03-0.204D-02-0.790D-02-0.324D-02 0.566D-01 0.267D+00
 Coeff-Com:  0.306D+00 0.385D+00
 Coeff:      0.649D-05 0.140D-05 0.463D-06 0.316D-04 0.408D-04-0.145D-03
 Coeff:     -0.414D-03-0.204D-02-0.790D-02-0.324D-02 0.566D-01 0.267D+00
 Coeff:      0.306D+00 0.385D+00
 Gap=     0.120 Goal=   None    Shift=    0.000
 RMSDP=2.15D-07 MaxDP=1.15D-05 DE=-2.10D-08 OVMax= 2.70D-05

 Cycle  15  Pass 1  IDiag  1:
 RMSU=  1.17D-07    CP:  1.00D+00  5.18D-01  1.35D-01  7.10D-01  3.77D-01
                    CP:  5.28D-01  4.42D-01  7.58D-01  8.71D-01  6.93D-01
                    CP:  9.42D-01  8.21D-01  6.08D-01  4.51D-01
 E= -7517.80652566888     Delta-E=       -0.000000003929 Rises=F Damp=F
 DIIS: error= 6.71D-07 at cycle  15 NSaved=  15.
 NSaved=15 IEnMin=15 EnMin= -7517.80652566888     IErMin=15 ErrMin= 6.71D-07
 ErrMax= 6.71D-07  0.00D+00 EMaxC= 1.00D-01 BMatC= 4.69D-10 BMatP= 3.60D-09
 IDIUse=1 WtCom= 1.00D+00 WtEn= 0.00D+00
 Coeff-Com: -0.147D-05 0.690D-05-0.127D-05 0.209D-04 0.736D-04 0.101D-03
 Coeff-Com:  0.667D-04-0.577D-03-0.305D-02-0.412D-02 0.165D-02 0.610D-01
 Coeff-Com:  0.107D+00 0.279D+00 0.559D+00
 Coeff:     -0.147D-05 0.690D-05-0.127D-05 0.209D-04 0.736D-04 0.101D-03
 Coeff:      0.667D-04-0.577D-03-0.305D-02-0.412D-02 0.165D-02 0.610D-01
 Coeff:      0.107D+00 0.279D+00 0.559D+00
 Gap=     0.120 Goal=   None    Shift=    0.000
 RMSDP=7.41D-08 MaxDP=4.76D-06 DE=-3.93D-09 OVMax= 1.02D-05

 Cycle  16  Pass 1  IDiag  1:
 RMSU=  3.02D-08    CP:  1.00D+00  5.18D-01  1.35D-01  7.10D-01  3.77D-01
                    CP:  5.28D-01  4.42D-01  7.58D-01  8.71D-01  6.91D-01
                    CP:  9.46D-01  8.32D-01  6.21D-01  5.91D-01  7.36D-01
 E= -7517.80652566932     Delta-E=       -0.000000000444 Rises=F Damp=F
 DIIS: error= 2.32D-07 at cycle  16 NSaved=  16.
 NSaved=16 IEnMin=16 EnMin= -7517.80652566932     IErMin=16 ErrMin= 2.32D-07
 ErrMax= 2.32D-07  0.00D+00 EMaxC= 1.00D-01 BMatC= 4.45D-11 BMatP= 4.69D-10
 IDIUse=1 WtCom= 1.00D+00 WtEn= 0.00D+00
 Coeff-Com: -0.124D-05 0.298D-05-0.935D-06 0.800D-05 0.326D-04 0.713D-04
 Coeff-Com:  0.854D-04-0.329D-05-0.571D-03-0.135D-02-0.448D-02 0.425D-02
 Coeff-Com:  0.253D-01 0.981D-01 0.251D+00 0.627D+00
 Coeff:     -0.124D-05 0.298D-05-0.935D-06 0.800D-05 0.326D-04 0.713D-04
 Coeff:      0.854D-04-0.329D-05-0.571D-03-0.135D-02-0.448D-02 0.425D-02
 Coeff:      0.253D-01 0.981D-01 0.251D+00 0.627D+00
 Gap=     0.120 Goal=   None    Shift=    0.000
 RMSDP=1.87D-08 MaxDP=8.84D-07 DE=-4.44D-10 OVMax= 2.43D-06

 Cycle  17  Pass 1  IDiag  1:
 RMSU=  1.01D-08    CP:  1.00D+00  5.18D-01  1.35D-01  7.10D-01  3.77D-01
                    CP:  5.28D-01  4.42D-01  7.58D-01  8.71D-01  6.92D-01
                    CP:  9.47D-01  8.32D-01  6.29D-01  5.99D-01  7.71D-01
                    CP:  9.60D-01
 E= -7517.80652566989     Delta-E=       -0.000000000571 Rises=F Damp=F
 DIIS: error= 5.73D-08 at cycle  17 NSaved=  17.
 NSaved=17 IEnMin=17 EnMin= -7517.80652566989     IErMin=17 ErrMin= 5.73D-08
 ErrMax= 5.73D-08  0.00D+00 EMaxC= 1.00D-01 BMatC= 4.11D-12 BMatP= 4.45D-11
 IDIUse=1 WtCom= 1.00D+00 WtEn= 0.00D+00
 Coeff-Com: -0.771D-06 0.134D-05-0.190D-07 0.849D-06 0.708D-05 0.203D-04
 Coeff-Com:  0.292D-04 0.760D-04 0.126D-03-0.114D-04-0.183D-02-0.531D-02
 Coeff-Com: -0.196D-02 0.870D-02 0.414D-01 0.282D+00 0.677D+00
 Coeff:     -0.771D-06 0.134D-05-0.190D-07 0.849D-06 0.708D-05 0.203D-04
 Coeff:      0.292D-04 0.760D-04 0.126D-03-0.114D-04-0.183D-02-0.531D-02
 Coeff:     -0.196D-02 0.870D-02 0.414D-01 0.282D+00 0.677D+00
 Gap=     0.120 Goal=   None    Shift=    0.000
 RMSDP=8.46D-09 MaxDP=4.76D-07 DE=-5.71D-10 OVMax= 1.11D-06

 SCF Done:  E(RPBE1PBE) =  -7517.80652567     A.U. after   17 cycles
            NFock= 17  Conv=0.85D-08     -V/T= 2.1285
 KE= 6.661937683564D+03 PE=-2.468359148920D+04 EE= 6.957681698327D+03
 Leave Link  502 at Thu Mar  8 07:05:24 2018, MaxMem=   536870912 cpu:      3063.3
 (Enter /share/apps//mg09/l601.exe)
 Copying SCF densities to generalized density rwf, IOpCl= 0 IROHF=0.

 **********************************************************************

            Population analysis using the SCF density.

 **********************************************************************

 Orbital symmetries:
       Occupied  (A) (A) (A) (A) (A) (A) (A) (A) (A) (A) (A) (A)
                 (A) (A) (A) (A) (A) (A) (A) (A) (A) (A) (A) (A)
                 (A) (A) (A) (A) (A) (A) (A) (A) (A) (A) (A) (A)
                 (A) (A) (A) (A) (A) (A) (A) (A) (A) (A) (A) (A)
                 (A) (A) (A) (A) (A) (A) (A) (A) (A) (A) (A) (A)
                 (A) (A) (A) (A) (A) (A) (A) (A) (A) (A) (A) (A)
                 (A) (A) (A) (A) (A) (A) (A) (A) (A) (A) (A) (A)
                 (A) (A) (A) (A) (A) (A) (A) (A) (A) (A) (A) (A)
                 (A) (A) (A) (A) (A) (A) (A) (A) (A) (A) (A) (A)
                 (A) (A) (A) (A) (A) (A) (A) (A)
       Virtual   (A) (A) (A) (A) (A) (A) (A) (A) (A) (A) (A) (A)
                 (A) (A) (A) (A) (A) (A) (A) (A) (A) (A) (A) (A)
                 (A) (A) (A) (A) (A) (A) (A) (A) (A) (A) (A) (A)
                 (A) (A) (A) (A) (A) (A) (A) (A) (A) (A) (A) (A)
                 (A) (A) (A) (A) (A) (A) (A) (A) (A) (A) (A) (A)
                 (A) (A) (A) (A) (A) (A) (A) (A) (A) (A) (A) (A)
                 (A) (A) (A) (A) (A) (A) (A) (A) (A) (A) (A) (A)
                 (A) (A) (A) (A) (A) (A) (A) (A) (A) (A) (A) (A)
                 (A) (A) (A) (A) (A) (A) (A) (A) (A) (A) (A) (A)
                 (A) (A) (A) (A) (A) (A) (A) (A) (A) (A) (A) (A)
                 (A) (A) (A) (A) (A) (A) (A) (A) (A) (A) (A) (A)
                 (A) (A) (A) (A) (A) (A) (A) (A) (A) (A) (A) (A)
                 (A) (A) (A) (A) (A) (A) (A) (A) (A) (A) (A) (A)
                 (A) (A) (A) (A) (A) (A) (A) (A) (A) (A) (A) (A)
                 (A) (A) (A) (A) (A) (A) (A) (A) (A) (A) (A) (A)
                 (A) (A) (A) (A) (A) (A) (A) (A) (A) (A) (A) (A)
                 (A) (A) (A) (A) (A) (A) (A) (A) (A) (A) (A) (A)
                 (A) (A) (A) (A) (A) (A) (A) (A) (A) (A) (A) (A)
                 (A) (A) (A) (A) (A) (A) (A) (A) (A) (A) (A) (A)
                 (A) (A) (A) (A) (A) (A) (A) (A) (A) (A) (A) (A)
                 (A) (A) (A) (A) (A) (A) (A) (A) (A) (A) (A) (A)
                 (A) (A) (A) (A) (A) (A) (A) (A) (A) (A) (A) (A)
                 (A) (A) (A) (A) (A) (A) (A) (A) (A) (A) (A) (A)
                 (A) (A) (A) (A) (A) (A) (A) (A) (A) (A) (A) (A)
                 (A) (A) (A) (A) (A) (A) (A) (A) (A) (A) (A) (A)
                 (A) (A) (A) (A) (A) (A) (A) (A) (A) (A) (A) (A)
                 (A) (A) (A) (A) (A) (A) (A) (A) (A) (A) (A) (A)
                 (A) (A) (A) (A)
 The electronic state is 1-A.
 Alpha  occ. eigenvalues -- -399.10001-399.09570-399.09569 -49.91571 -49.91127
 Alpha  occ. eigenvalues --  -49.91126 -44.39667 -44.39628 -44.39582 -44.39234
 Alpha  occ. eigenvalues --  -44.39233 -44.39168 -44.39168 -44.39149 -44.39149
 Alpha  occ. eigenvalues --   -6.28069  -6.27625  -6.27623  -6.02707  -6.02705
 Alpha  occ. eigenvalues --   -6.01057  -6.01056  -5.13443  -5.12822  -4.43552
 Alpha  occ. eigenvalues --   -4.43436  -4.43268  -4.43140  -4.43139  -4.42943
 Alpha  occ. eigenvalues --   -4.42943  -4.42853  -4.42851  -3.74959  -3.74952
 Alpha  occ. eigenvalues --   -3.74876  -3.74874  -3.74709  -3.74706  -3.73370
 Alpha  occ. eigenvalues --   -3.73369  -3.73235  -3.73234  -3.72973  -3.72972
 Alpha  occ. eigenvalues --   -3.46649  -3.46647  -3.46381  -3.46079  -3.45931
 Alpha  occ. eigenvalues --   -3.45809  -1.23010  -1.22999  -1.22828  -1.22771
 Alpha  occ. eigenvalues --   -1.22712  -1.22582  -1.22553  -1.22534  -1.22516
 Alpha  occ. eigenvalues --   -1.22487  -1.22387  -1.22332  -1.22319  -1.22259
 Alpha  occ. eigenvalues --   -1.22202  -1.09051  -1.08762  -1.08730  -1.08577
 Alpha  occ. eigenvalues --   -1.08526  -1.08501  -1.08404  -1.08356  -1.08260
 Alpha  occ. eigenvalues --   -1.08137  -1.07006  -1.07000  -1.06933  -1.06913
 Alpha  occ. eigenvalues --   -1.06782  -1.06767  -1.06646  -1.06632  -1.06584
 Alpha  occ. eigenvalues --   -1.06527  -1.02909  -1.02893  -1.02711  -1.02687
 Alpha  occ. eigenvalues --   -1.02598  -1.02244  -1.02241  -1.02189  -1.02021
 Alpha  occ. eigenvalues --   -1.01968  -0.67038  -0.62255  -0.59204  -0.54652
 Alpha  occ. eigenvalues --   -0.53959  -0.45400  -0.44090  -0.43767  -0.39476
 Alpha  occ. eigenvalues --   -0.29041  -0.27648  -0.27021  -0.25310  -0.25090
 Alpha  occ. eigenvalues --   -0.24659  -0.23721  -0.22081  -0.21613  -0.20844
 Alpha  occ. eigenvalues --   -0.19836
 Alpha virt. eigenvalues --   -0.07808  -0.07528  -0.06806  -0.06586  -0.06276
 Alpha virt. eigenvalues --   -0.06008  -0.05585  -0.04913  -0.04389  -0.03363
 Alpha virt. eigenvalues --   -0.02870  -0.01944  -0.01166   0.04044   0.04325
 Alpha virt. eigenvalues --    0.04405   0.06474   0.07937   0.08546   0.08693
 Alpha virt. eigenvalues --    0.09473   0.10066   0.10343   0.10565   0.10871
 Alpha virt. eigenvalues --    0.11178   0.11772   0.11932   0.12009   0.13055
 Alpha virt. eigenvalues --    0.14028   0.14915   0.14992   0.16767   0.16915
 Alpha virt. eigenvalues --    0.17914   0.18939   0.19689   0.20147   0.21144
 Alpha virt. eigenvalues --    0.21306   0.22380   0.23045   0.23080   0.24083
 Alpha virt. eigenvalues --    0.24307   0.25792   0.26182   0.26740   0.28365
 Alpha virt. eigenvalues --    0.29163   0.29738   0.30149   0.30980   0.31691
 Alpha virt. eigenvalues --    0.32265   0.32532   0.32831   0.33075   0.33913
 Alpha virt. eigenvalues --    0.34873   0.35502   0.36346   0.36436   0.38235
 Alpha virt. eigenvalues --    0.38549   0.39956   0.40415   0.40920   0.41995
 Alpha virt. eigenvalues --    0.42408   0.42655   0.43716   0.44527   0.45201
 Alpha virt. eigenvalues --    0.45877   0.47181   0.47821   0.48131   0.48365
 Alpha virt. eigenvalues --    0.48951   0.49742   0.49825   0.50765   0.50924
 Alpha virt. eigenvalues --    0.52544   0.54069   0.55161   0.56166   0.56324
 Alpha virt. eigenvalues --    0.56552   0.56976   0.57837   0.58062   0.58792
 Alpha virt. eigenvalues --    0.58954   0.60067   0.61215   0.61945   0.62167
 Alpha virt. eigenvalues --    0.62730   0.63313   0.63359   0.64570   0.65396
 Alpha virt. eigenvalues --    0.66327   0.67134   0.68269   0.69717   0.70174
 Alpha virt. eigenvalues --    0.71191   0.72430   0.74064   0.74075   0.74548
 Alpha virt. eigenvalues --    0.74753   0.75189   0.77584   0.77889   0.78677
 Alpha virt. eigenvalues --    0.79549   0.79992   0.80306   0.82600   0.83376
 Alpha virt. eigenvalues --    0.84206   0.85013   0.85544   0.85590   0.86404
 Alpha virt. eigenvalues --    0.87052   0.87511   0.88841   0.89206   0.89244
 Alpha virt. eigenvalues --    0.90000   0.90701   0.92164   0.92353   0.92489
 Alpha virt. eigenvalues --    0.93157   0.95307   0.95385   0.96234   0.97198
 Alpha virt. eigenvalues --    0.97983   0.99936   1.00269   1.01726   1.02127
 Alpha virt. eigenvalues --    1.04928   1.06036   1.06331   1.06721   1.07292
 Alpha virt. eigenvalues --    1.09368   1.11035   1.11742   1.11817   1.12256
 Alpha virt. eigenvalues --    1.13297   1.14915   1.15892   1.16294   1.16807
 Alpha virt. eigenvalues --    1.17740   1.17999   1.18263   1.19286   1.19354
 Alpha virt. eigenvalues --    1.20321   1.20890   1.21030   1.21483   1.21697
 Alpha virt. eigenvalues --    1.21955   1.22818   1.23113   1.24042   1.24153
 Alpha virt. eigenvalues --    1.24677   1.25354   1.25560   1.26189   1.26942
 Alpha virt. eigenvalues --    1.27595   1.27803   1.28444   1.28597   1.30141
 Alpha virt. eigenvalues --    1.30241   1.30722   1.31479   1.32575   1.33436
 Alpha virt. eigenvalues --    1.34391   1.35063   1.37399   1.38705   1.39018
 Alpha virt. eigenvalues --    1.39536   1.41215   1.41614   1.42203   1.43489
 Alpha virt. eigenvalues --    1.45390   1.46936   1.47261   1.47707   1.48550
 Alpha virt. eigenvalues --    1.48842   1.50251   1.52353   1.53254   1.54032
 Alpha virt. eigenvalues --    1.54420   1.55902   1.57665   1.58932   1.61104
 Alpha virt. eigenvalues --    1.63336   1.64441   1.71657   2.06984   2.07990
 Alpha virt. eigenvalues --    2.09055   2.09877   2.12398   2.12893   2.14459
 Alpha virt. eigenvalues --    2.16365   2.19709   2.20404   2.21382   2.21528
 Alpha virt. eigenvalues --    2.22186   2.23484   2.25266   2.25487   2.26747
 Alpha virt. eigenvalues --    2.27025   2.28829   2.29564   2.30702   2.31663
 Alpha virt. eigenvalues --    2.32360   2.33767   2.36465   2.38294   2.39237
 Alpha virt. eigenvalues --    2.39843   2.41071   2.44261   2.44586   2.45745
 Alpha virt. eigenvalues --    2.49347   2.49761   2.51185   2.53211   2.55730
 Alpha virt. eigenvalues --    2.57096   2.59889   2.60963   2.64359   2.66380
 Alpha virt. eigenvalues --    2.67247   2.70761   2.72464   2.75033   2.77647
 Alpha virt. eigenvalues --    2.77877   2.79485   2.79908   2.80816   2.81734
 Alpha virt. eigenvalues --    2.83293   2.83904   2.85555   2.86421   2.94398
 Alpha virt. eigenvalues --    3.21854   3.24022   3.31277   3.34753   3.36411
 Alpha virt. eigenvalues --    3.45422   3.92710   3.96924   3.98076   3.99222
 Alpha virt. eigenvalues --    4.00728   4.04217   4.05358   4.09428   4.10129
 Alpha virt. eigenvalues --    5.24089   5.29369   5.44167  35.39168  35.40635
 Alpha virt. eigenvalues --   35.42547  35.43929  35.44324  35.47149  35.49049
 Alpha virt. eigenvalues --   35.52211  35.52532  35.57403  35.57938  35.64884
 Alpha virt. eigenvalues --   35.89149  35.94846  35.96730  36.11978  36.18628
 Alpha virt. eigenvalues --   36.21359  36.94484  36.95068  36.97816  37.03446
 Alpha virt. eigenvalues --   37.11135  37.14725 113.57613 113.58692 120.21775
 Alpha virt. eigenvalues --  120.23878 120.24225 120.26229
          Condensed to atoms (all electrons):
               1          2          3          4          5          6
     1  Bi  22.291360  -0.017337   0.125443  -0.027027   0.120345  -0.028160
     2  Sn  -0.017337  21.372087  -0.017343   0.162239  -0.011037   0.173609
     3  Bi   0.125443  -0.017343  22.291404   0.065208   0.120430   0.190525
     4  Ge  -0.027027   0.162239   0.065208  31.524929  -0.016817   0.127047
     5  Ge   0.120345  -0.011037   0.120430  -0.016817  31.600550   0.182106
     6  Bi  -0.028160   0.173609   0.190525   0.127047   0.182106  22.383392
     7  Sn   0.152246  -0.019973   0.152239   0.168913  -0.012386  -0.017507
     8  Ge   0.065143   0.162333  -0.027049   0.105607  -0.016814  -0.019433
     9  Bi   0.190634   0.173562  -0.028202  -0.019431   0.182014  -0.029836
               7          8          9
     1  Bi   0.152246   0.065143   0.190634
     2  Sn  -0.019973   0.162333   0.173562
     3  Bi   0.152239  -0.027049  -0.028202
     4  Ge   0.168913   0.105607  -0.019431
     5  Ge  -0.012386  -0.016814   0.182014
     6  Bi  -0.017507  -0.019433  -0.029836
     7  Sn  21.448567   0.168825  -0.017521
     8  Ge   0.168825  31.524859   0.127102
     9  Bi  -0.017521   0.127102  22.383457
 Mulliken charges:
               1
     1  Bi   0.127353
     2  Sn   0.021860
     3  Bi   0.127346
     4  Ge  -0.090669
     5  Ge  -0.148391
     6  Bi   0.038256
     7  Sn  -0.023403
     8  Ge  -0.090574
     9  Bi   0.038221
 Sum of Mulliken charges =   0.00000
 Mulliken charges with hydrogens summed into heavy atoms:
               1
     1  Bi   0.127353
     2  Sn   0.021860
     3  Bi   0.127346
     4  Ge  -0.090669
     5  Ge  -0.148391
     6  Bi   0.038256
     7  Sn  -0.023403
     8  Ge  -0.090574
     9  Bi   0.038221
 Electronic spatial extent (au):  <R**2>=           5924.4838
 Charge=              0.0000 electrons
 Dipole moment (field-independent basis, Debye):
    X=             -0.8396    Y=             -0.0050    Z=             -0.9975  Tot=              1.3038
 Quadrupole moment (field-independent basis, Debye-Ang):
   XX=           -212.5150   YY=           -217.6328   ZZ=           -223.4320
   XY=              0.0261   XZ=             -0.9000   YZ=             -0.0073
 Traceless Quadrupole moment (field-independent basis, Debye-Ang):
   XX=              5.3450   YY=              0.2271   ZZ=             -5.5721
   XY=              0.0261   XZ=             -0.9000   YZ=             -0.0073
 Octapole moment (field-independent basis, Debye-Ang**2):
  XXX=            -20.3397  YYY=             -0.1139  ZZZ=            -95.8308  XYY=             -7.9752
  XXY=             -0.0201  XXZ=            -40.0989  XZZ=             -7.0318  YZZ=             -0.0429
  YYZ=            -43.9670  XYZ=              0.0263
 Hexadecapole moment (field-independent basis, Debye-Ang**3):
 XXXX=          -3606.0569 YYYY=          -3245.5593 ZZZZ=          -2921.4073 XXXY=             -1.9919
 XXXZ=             24.1718 YYYX=              0.0062 YYYZ=              0.1471 ZZZX=             -5.1946
 ZZZY=             -0.0166 XXYY=          -1091.4016 XXZZ=          -1080.2312 YYZZ=          -1033.2355
 XXYZ=              0.0760 YYXZ=              6.8156 ZZXY=             -0.2372
 N-N= 3.546165581636D+03 E-N=-2.468359149611D+04  KE= 6.661937683564D+03
 No NMR shielding tensors so no spin-rotation constants.
 Leave Link  601 at Thu Mar  8 07:05:25 2018, MaxMem=   536870912 cpu:         1.1
 (Enter /share/apps//mg09/l701.exe)
 Compute integral first derivatives.
 ... and contract with generalized density number  0.
   1 Symmetry operations used in ECPInt.
 ECPInt:  NShTT=   10440 NPrTT=   41973 LenC2=    9650 LenP2D=   27570.
 LDataN:  DoStor=T MaxTD1= 9 Len=  602
 Leave Link  701 at Thu Mar  8 07:05:41 2018, MaxMem=   536870912 cpu:        65.5
 (Enter /share/apps//mg09/l702.exe)
 L702 exits ... SP integral derivatives will be done elsewhere.
 Leave Link  702 at Thu Mar  8 07:05:42 2018, MaxMem=   536870912 cpu:         0.0
 (Enter /share/apps//mg09/l703.exe)
 Compute integral first derivatives, UseDBF=F ICtDFT=           0.
 Integral derivatives from FoFJK, PRISM(SPDF).
 Calling FoFJK, ICntrl=      2127 FMM=F ISym2X=0 I1Cent= 0 IOpClX= 0 NMat=1 NMatS=1 NMatT=0.
 FoFJK:  IHMeth= 1 ICntrl=    2127 DoSepK=F KAlg= 0 I1Cent=   0 FoldK=F
 IRaf=         0 NMat=   1 IRICut=       1 DoRegI=T DoRafI=F ISym2E= 0.
 FoFCou: FMM=F IPFlag=           0 FMFlag=      100000 FMFlg1=         800
         NFxFlg=           0 DoJE=F BraDBF=F KetDBF=F FulRan=T
         wScrn=  0.000000 ICntrl=    2127 IOpCl=  0 I1Cent=           0 NGrid=           0
         NMat0=    1 NMatS0=      1 NMatT0=    0 NMatD0=    1 NMtDS0=    0 NMtDT0=    0
 Symmetry not used in FoFCou.
 Defaulting to unpruned grid for atomic number  83.
 Defaulting to unpruned grid for atomic number  83.
 Defaulting to unpruned grid for atomic number  83.
 Defaulting to unpruned grid for atomic number  83.
 Leave Link  703 at Thu Mar  8 07:08:18 2018, MaxMem=   536870912 cpu:       625.8
 (Enter /share/apps//mg09/l716.exe)
 Dipole        =-3.30340112D-01-1.95416274D-03-3.92436101D-01
 ***** Axes restored to original set *****
 -------------------------------------------------------------------
 Center     Atomic                   Forces (Hartrees/Bohr)
 Number     Number              X              Y              Z
 -------------------------------------------------------------------
      1       83          -0.006224664    0.005427376    0.003138073
      2       50           0.014053853    0.000074131   -0.001084727
      3       83          -0.006130530   -0.005453945    0.003120624
      4       32          -0.000309854   -0.013095759   -0.008197424
      5       32           0.002148223   -0.000024605    0.011107980
      6       83           0.004748953   -0.007340785    0.002465697
      7       50          -0.012421615   -0.000091730   -0.004813848
      8       32          -0.000460130    0.013087928   -0.008198510
      9       83           0.004595764    0.007417389    0.002462135
 -------------------------------------------------------------------
 Cartesian Forces:  Max     0.014053853 RMS     0.006942956
 Force constants in Cartesian coordinates: 
                1             2             3             4             5 
      1  0.187073D+00
      2 -0.360138D-01  0.167725D+00
      3 -0.701584D-02  0.257919D-01  0.150863D+00
      4 -0.276337D-02  0.710375D-02  0.340763D-02  0.172930D+00
      5 -0.720246D-03  0.330784D-02  0.142640D-02  0.328662D-03  0.122000D+00
      6  0.524143D-02 -0.312204D-02  0.437887D-02 -0.210405D-01 -0.160143D-03
      7 -0.271384D-01  0.166607D-01  0.533678D-02 -0.268032D-02  0.643769D-03
      8 -0.163281D-01 -0.523116D-01  0.953488D-02 -0.718140D-02  0.322337D-02
      9  0.546594D-02 -0.945943D-02 -0.180573D-01  0.342869D-02 -0.138140D-02
     10  0.296711D-02  0.292331D-02  0.258011D-03 -0.510827D-01 -0.279146D-01
     11  0.718972D-02 -0.135178D-02 -0.616869D-02  0.137627D-04 -0.364333D-01
     12  0.607074D-02 -0.953944D-02  0.401126D-03  0.819730D-02 -0.794134D-02
     13 -0.386243D-01  0.182423D-01 -0.295914D-01 -0.168215D-02 -0.635900D-04
     14  0.220706D-01 -0.340768D-01  0.186915D-01 -0.648338D-04  0.798816D-02
     15 -0.762585D-03 -0.729753D-02 -0.370280D-01  0.319898D-02  0.191099D-04
     16  0.657814D-03  0.316616D-02  0.355566D-02 -0.290420D-01 -0.192056D-01
     17  0.846380D-02 -0.154343D-02 -0.270492D-02  0.952551D-02 -0.376423D-01
     18 -0.129259D-02  0.349564D-02  0.519399D-02 -0.750468D-03  0.186058D-01
     19 -0.295743D-01  0.130928D-01  0.772795D-02 -0.506423D-02 -0.104939D-03
     20 -0.115193D-01 -0.318197D-01 -0.277927D-01 -0.105432D-03  0.111283D-01
     21 -0.236689D-01 -0.117576D-01 -0.448964D-01 -0.402197D-02 -0.268104D-04
     22 -0.261020D-01 -0.177562D-02  0.212313D-01 -0.514595D-01  0.277214D-01
     23  0.139581D-01 -0.240547D-01 -0.930517D-02 -0.203918D-03 -0.360777D-01
     24  0.453218D-02  0.168561D-01 -0.382901D-01  0.809042D-02  0.805075D-02
     25 -0.664954D-01 -0.233996D-01 -0.491009D-02 -0.291561D-01  0.193153D-01
     26  0.128991D-01 -0.258751D-01 -0.947325D-02 -0.941609D-02 -0.374942D-01
     27  0.114296D-01 -0.496757D-02 -0.225653D-01 -0.510127D-03 -0.185923D-01
                6             7             8             9            10 
      6  0.108190D+00
      7  0.520133D-02  0.186170D+00
      8  0.319107D-02  0.362625D-01  0.168705D+00
      9  0.437621D-02 -0.665095D-02 -0.258666D-01  0.150957D+00
     10 -0.210723D-01 -0.259536D-01  0.175726D-02  0.211090D-01  0.165806D+00
     11 -0.174550D-01 -0.139792D-01 -0.242205D-01  0.957952D-02 -0.690214D-02
     12 -0.283551D-01  0.475636D-02 -0.168016D-01 -0.383093D-01  0.867676D-02
     13  0.393657D-02 -0.381518D-01 -0.183150D-01 -0.293795D-01  0.539523D-02
     14  0.261898D-04 -0.221435D-01 -0.346477D-01 -0.190934D-01 -0.954457D-03
     15 -0.583162D-02 -0.882960D-03  0.726901D-02 -0.370705D-01 -0.140597D-02
     16  0.233613D-01 -0.665914D-01  0.228630D-01 -0.503229D-02 -0.304312D-01
     17  0.150835D-01 -0.134246D-01 -0.257319D-01  0.940928D-02  0.293178D-02
     18 -0.292100D-01  0.113633D-01  0.511717D-02 -0.225612D-01 -0.244519D-01
     19  0.213656D-02 -0.295599D-01 -0.130561D-01  0.736060D-02 -0.511207D-01
     20  0.132912D-04  0.115453D-01 -0.318381D-01  0.278894D-01  0.306751D-01
     21  0.400114D-02 -0.238286D-01  0.114493D-01 -0.449226D-01  0.159687D-01
     22 -0.213075D-01  0.309657D-02 -0.286444D-02  0.177464D-03 -0.203699D-01
     23  0.171839D-01 -0.713087D-02 -0.148100D-02  0.617119D-02 -0.834695D-03
     24 -0.283710D-01  0.594984D-02  0.962024D-02  0.394651D-03 -0.199029D-03
     25  0.235431D-01  0.808570D-03 -0.313777D-02  0.352104D-02  0.478939D-02
     26 -0.147607D-01 -0.843399D-02 -0.169801D-02  0.275135D-02 -0.168152D-02
     27 -0.291786D-01 -0.124506D-02 -0.351352D-02  0.519300D-02  0.111674D-02
               11            12            13            14            15 
     11  0.174477D+00
     12  0.387972D-01  0.198758D+00
     13 -0.888763D-03  0.322930D-03  0.113884D+00
     14  0.348603D-02  0.146252D-02 -0.194652D-03  0.143439D+00
     15 -0.836747D-02 -0.527600D-02  0.165068D-01  0.142174D-03  0.185240D+00
     16  0.147117D-01 -0.855375D-02 -0.237425D-01  0.960781D-02 -0.368028D-02
     17 -0.265863D-01 -0.147351D-01  0.212912D-01 -0.490280D-01 -0.399504D-02
     18  0.188071D-01 -0.611667D-01  0.194496D-01 -0.319120D-01 -0.460855D-01
     19  0.305704D-02 -0.152165D-01  0.881216D-03 -0.497589D-04 -0.772261D-02
     20 -0.351251D-01 -0.359180D-03 -0.501618D-04  0.873025D-02 -0.523896D-04
     21 -0.155620D-01 -0.308511D-01 -0.600801D-03 -0.512105D-05 -0.261483D-02
     22  0.124844D-02 -0.440283D-03  0.536517D-02  0.978815D-03 -0.151407D-02
     23 -0.524620D-01  0.187117D-01  0.912724D-03  0.351301D-02  0.834881D-02
     24 -0.187131D-01 -0.363789D-01  0.343142D-03 -0.145995D-02 -0.527654D-02
     25 -0.445056D-02 -0.381350D-02 -0.233251D-01 -0.925004D-02 -0.373735D-02
     26 -0.178458D-02 -0.959469D-02 -0.209341D-01 -0.494037D-01  0.393333D-02
     27 -0.917652D-03  0.117799D-02  0.190127D-01  0.321480D-01 -0.460573D-01
               16            17            18            19            20 
     16  0.142252D+00
     17 -0.361162D-01  0.148364D+00
     18  0.383359D-02 -0.157418D-01  0.140687D+00
     19 -0.173012D-04  0.529191D-02 -0.604552D-02  0.165063D+00
     20  0.568749D-03  0.198016D-02  0.355358D-03  0.347793D-03  0.110597D+00
     21 -0.633941D-02  0.352207D-02  0.598578D-02  0.330144D-01  0.222804D-03
     22  0.471005D-02  0.176842D-02  0.110353D-02 -0.506684D-01 -0.308657D-01
     23  0.453522D-02 -0.170218D-02  0.931932D-03 -0.325988D-02 -0.355543D-01
     24 -0.394018D-02  0.954347D-02  0.117492D-02 -0.152151D-01  0.156026D-03
     25  0.220434D-02  0.268219D-03 -0.320948D-02  0.602661D-04 -0.596334D-03
     26 -0.130864D-03 -0.811010D-02  0.340833D-03 -0.531884D-02  0.190176D-02
     27 -0.320465D-02 -0.381404D-03  0.598196D-02 -0.603973D-02 -0.432670D-03
               21            22            23            24            25 
     21  0.138162D+00
     22  0.157711D-01  0.165632D+00
     23  0.157613D-01  0.677874D-02  0.174651D+00
     24 -0.308485D-01  0.918518D-02 -0.386586D-01  0.198800D+00
     25 -0.629448D-02 -0.302038D-01 -0.147554D-01 -0.874641D-02  0.141318D+00
     26 -0.360399D-02 -0.298997D-02 -0.268318D-01  0.146051D-01  0.360063D-01
     27  0.598418D-02 -0.242066D-01 -0.191449D-01 -0.612049D-01  0.364718D-02
               26            27 
     26  0.149296D+00
     27  0.158020D-01  0.140669D+00
 Leave Link  716 at Thu Mar  8 07:08:18 2018, MaxMem=   536870912 cpu:         0.1
 (Enter /share/apps//mg09/l103.exe)

 GradGradGradGradGradGradGradGradGradGradGradGradGradGradGradGradGradGrad
 Berny optimization.
 Search for a local minimum.
 Step number   1 out of a maximum of  100
 All quantities printed in internal units (Hartrees-Bohrs-Radians)
 Second derivative matrix not updated -- first step.
 ITU=  0
     Eigenvalues ---    0.08176   0.11400   0.12034   0.13447   0.14120
     Eigenvalues ---    0.14281   0.14965   0.15554   0.16398   0.16879
     Eigenvalues ---    0.17884   0.22383   0.22555   0.24203   0.25039
     Eigenvalues ---    0.26134   0.26848   0.28213   0.28402   0.28542
     Eigenvalues ---    0.32037
 RFO step:  Lambda=-7.75395438D-03 EMin= 8.17622756D-02
 Linear search not attempted -- first point.
 TrRot=  0.000271 -0.000003 -0.000482  0.000000 -0.000033  0.000000
 Variable       Old X    -DE/DX   Delta X   Delta X   Delta X     New X
                                 (Linear)    (Quad)   (Total)
    X1        2.99041  -0.00622   0.00000  -0.03854  -0.03823   2.95219
    Y1       -2.97226   0.00543   0.00000   0.03636   0.03636  -2.93590
    Z1       -1.33365   0.00314   0.00000   0.02254   0.02216  -1.31150
    X2       -4.77836   0.01405   0.00000   0.08696   0.08715  -4.69121
    Y2       -0.03066   0.00007   0.00000   0.00046   0.00045  -0.03021
    Z2        2.51084  -0.00108   0.00000  -0.01365  -0.01429   2.49655
    X3        2.95057  -0.00613   0.00000  -0.03797  -0.03765   2.91292
    Y3        3.00999  -0.00545   0.00000  -0.03655  -0.03656   2.97343
    Z3       -1.33417   0.00312   0.00000   0.02252   0.02213  -1.31204
    X4       -0.31803  -0.00031   0.00000   0.00160   0.00174  -0.31629
    Y4        2.76929  -0.01310   0.00000  -0.06532  -0.06532   2.70397
    Z4        3.91247  -0.00820   0.00000  -0.04574  -0.04623   3.86623
    X5       -0.76413   0.00215   0.00000   0.01104   0.01145  -0.75268
    Y5       -0.00453  -0.00002   0.00000  -0.00011  -0.00012  -0.00464
    Z5       -4.45965   0.01111   0.00000   0.06143   0.06092  -4.39873
    X6       -2.61644   0.00475   0.00000   0.02795   0.02826  -2.58818
    Y6        3.94177  -0.00734   0.00000  -0.05591  -0.05592   3.88586
    Z6       -1.10152   0.00247   0.00000   0.01819   0.01762  -1.08390
    X7        4.38822  -0.01242   0.00000  -0.08104  -0.08088   4.30734
    Y7        0.02912  -0.00009   0.00000  -0.00052  -0.00052   0.02859
    Z7        3.41972  -0.00481   0.00000  -0.03331  -0.03365   3.38607
    X8       -0.28238  -0.00046   0.00000   0.00086   0.00100  -0.28138
    Y8       -2.77196   0.01309   0.00000   0.06527   0.06526  -2.70669
    Z8        3.91283  -0.00820   0.00000  -0.04580  -0.04630   3.86654
    X9       -2.56343   0.00460   0.00000   0.02685   0.02715  -2.53627
    Y9       -3.97580   0.00742   0.00000   0.05637   0.05636  -3.91944
    Z9       -1.10088   0.00246   0.00000   0.01820   0.01763  -1.08324
         Item               Value     Threshold  Converged?
 Maximum Force            0.014054     0.000450     NO 
 RMS     Force            0.006943     0.000300     NO 
 Maximum Displacement     0.087149     0.001800     NO 
 RMS     Displacement     0.041769     0.001200     NO 
 Predicted change in Energy=-4.059580D-03
 Lowest energy point so far.  Saving SCF results.
 GradGradGradGradGradGradGradGradGradGradGradGradGradGradGradGradGradGrad

 Leave Link  103 at Thu Mar  8 07:08:18 2018, MaxMem=   536870912 cpu:         0.1
 (Enter /share/apps//mg09/l202.exe)
                          Input orientation:                          
 ---------------------------------------------------------------------
 Center     Atomic      Atomic             Coordinates (Angstroms)
 Number     Number       Type             X           Y           Z
 ---------------------------------------------------------------------
      1         83           0        1.562230   -1.553610   -0.694015
      2         50           0       -2.482484   -0.015987    1.321117
      3         83           0        1.541449    1.573474   -0.694302
      4         32           0       -0.167372    1.430879    2.045922
      5         32           0       -0.398301   -0.002458   -2.327707
      6         83           0       -1.369606    2.056307   -0.573577
      7         50           0        2.279348    0.015131    1.791833
      8         32           0       -0.148900   -1.432321    2.046084
      9         83           0       -1.342138   -2.074079   -0.573227
 ---------------------------------------------------------------------
                    Distance matrix (angstroms):
                    1          2          3          4          5
     1  Bi   0.000000
     2  Sn   4.773337   0.000000
     3  Bi   3.127153   4.772875   0.000000
     4  Ge   4.405218   2.824625   3.232526   0.000000
     5  Ge   2.986420   4.202133   2.985666   4.608298   0.000000
     6  Bi   4.652061   3.020391   2.953294   2.949288   2.873833
     7  Sn   3.025665   4.785142   3.025524   2.838193   4.913321
     8  Ge   3.232772   2.824392   4.404747   2.863259   4.608336
     9  Bi   2.953106   3.020707   4.651277   4.530425   2.874134
                    6          7          8          9
     6  Bi   0.000000
     7  Sn   4.803793   0.000000
     8  Ge   4.530261   2.838336   0.000000
     9  Bi   4.130477   4.803486   2.948977   0.000000
 Stoichiometry    Bi4Ge3Sn2
 Framework group  C1[X(Bi4Ge3Sn2)]
 Deg. of freedom    21
 Full point group                 C1      NOp   1
 RotChk:  IX=0 Diff= 2.86D-03
 Largest Abelian subgroup         C1      NOp   1
 Largest concise Abelian subgroup C1      NOp   1
                         Standard orientation:                         
 ---------------------------------------------------------------------
 Center     Atomic      Atomic             Coordinates (Angstroms)
 Number     Number       Type             X           Y           Z
 ---------------------------------------------------------------------
      1         83           0       -1.561565    1.556077   -0.695319
      2         50           0        2.483217    0.012105    1.314816
      3         83           0       -1.545746   -1.571036   -0.695521
      4         32           0        0.166718   -1.431061    2.042562
      5         32           0        0.394461    0.001760   -2.331402
      6         83           0        1.364687   -2.058484   -0.578413
      7         50           0       -2.278067   -0.011441    1.791478
      8         32           0        0.152790    1.432164    2.042646
      9         83           0        1.343775    2.071940   -0.578176
 ---------------------------------------------------------------------
 Rotational constants (GHZ):      0.1000914      0.0996539      0.0810267
 Leave Link  202 at Thu Mar  8 07:08:20 2018, MaxMem=   536870912 cpu:         0.0
 (Enter /share/apps//mg09/l301.exe)
 Standard basis: def2TZVP (5D, 7F)
 Ernie: Thresh=  0.10000D-02 Tol=  0.10000D-05 Strict=F.
 There are   519 symmetry adapted cartesian basis functions of A   symmetry.
 There are   444 symmetry adapted basis functions of A   symmetry.
   444 basis functions,   963 primitive gaussians,   519 cartesian basis functions
   116 alpha electrons      116 beta electrons
       nuclear repulsion energy      3599.6994500758 Hartrees.
 IExCor= 1009 DFT=T Ex+Corr=PBE1PBE ExCW=0 ScaHFX=  0.250000
 ScaDFX=  0.750000  0.750000  1.000000  1.000000 ScalE2=  1.000000  1.000000
 IRadAn=      0 IRanWt=     -1 IRanGd=            0 ICorTp=0 IEmpDi=  4
 NAtoms=    9 NActive=    9 NUniq=    9 SFac= 1.00D+00 NAtFMM=   60 NAOKFM=F Big=F
 Integral buffers will be    131072 words long.
 Raffenetti 2 integral format.
 Two-electron integral symmetry is turned on.
 Leave Link  301 at Thu Mar  8 07:08:20 2018, MaxMem=   536870912 cpu:         0.2
 (Enter /share/apps//mg09/l302.exe)
 NPDir=0 NMtPBC=     1 NCelOv=     1 NCel=       1 NClECP=     1 NCelD=      1
         NCelK=      1 NCelE2=     1 NClLst=     1 CellRange=     0.0.
 One-electron integrals computed using PRISM.
   1 Symmetry operations used in ECPInt.
 ECPInt:  NShTT=   10440 NPrTT=   41973 LenC2=    9670 LenP2D=   27718.
 LDataN:  DoStor=T MaxTD1= 8 Len=  415
 NBasis=   444 RedAO= T EigKep=  8.82D-04  NBF=   444
 NBsUse=   444 1.00D-06 EigRej= -1.00D+00 NBFU=   444
 Precomputing XC quadrature grid using
 IXCGrd= 4 IRadAn=           0 IRanWt=          -1 IRanGd=           0 AccXCQ= 0.00D+00.
 Defaulting to unpruned grid for atomic number  83.
 Defaulting to unpruned grid for atomic number  50.
 Defaulting to unpruned grid for atomic number  83.
 Generated NRdTot=       0 NPtTot=           0 NUsed=           0 NTot=          32
 NSgBfM=   502   502   502   503   503 MxSgAt=     9 MxSgA2=     9.
 Leave Link  302 at Thu Mar  8 07:08:26 2018, MaxMem=   536870912 cpu:        25.0
 (Enter /share/apps//mg09/l303.exe)
 DipDrv:  MaxL=1.
 Leave Link  303 at Thu Mar  8 07:08:26 2018, MaxMem=   536870912 cpu:         0.2
 (Enter /share/apps//mg09/l401.exe)
 Initial guess from the checkpoint file:  "Isomer_49.chk"
 B after Tr=     0.000000    0.000000    0.000000
         Rot=    1.000000    0.000019   -0.000599    0.000798 Ang=   0.11 deg.
 Guess basis will be translated and rotated to current coordinates.
 JPrj=2 DoOrth=T DoCkMO=T.
 Generating alternative initial guess.
 ExpMin= 4.62D-02 ExpMax= 4.66D+05 ExpMxC= 4.50D+03 IAcc=2 IRadAn=         4 AccDes= 0.00D+00
 Harris functional with IExCor= 1009 and IRadAn=       4 diagonalized for initial guess.
 HarFok:  IExCor= 1009 AccDes= 0.00D+00 IRadAn=         4 IDoV= 1 UseB2=F ITyADJ=14
 ICtDFT=  3500011 ScaDFX=  1.000000  1.000000  1.000000  1.000000
 Defaulting to unpruned grid for atomic number  83.
 Defaulting to unpruned grid for atomic number  83.
 Defaulting to unpruned grid for atomic number  83.
 Defaulting to unpruned grid for atomic number  83.
 FoFCou: FMM=F IPFlag=           0 FMFlag=      100000 FMFlg1=           0
         NFxFlg=           0 DoJE=T BraDBF=F KetDBF=T FulRan=T
         wScrn=  0.000000 ICntrl=     500 IOpCl=  0 I1Cent=   200000004 NGrid=           0
         NMat0=    1 NMatS0=      1 NMatT0=    0 NMatD0=    1 NMtDS0=    0 NMtDT0=    0
 Petite list used in FoFCou.
 Harris En= -7518.61737169173    
 Leave Link  401 at Thu Mar  8 07:08:29 2018, MaxMem=   536870912 cpu:        11.3
 (Enter /share/apps//mg09/l502.exe)
 Closed shell SCF:
 Using DIIS extrapolation, IDIIS=  1040.
 Integral symmetry usage will be decided dynamically.
 IVT=     1410107 IEndB=     1410107 NGot=   536870912 MDV=   536322046
 LenX=   536322046 LenY=   536052166
 Requested convergence on RMS density matrix=1.00D-08 within 768 cycles.
 Requested convergence on MAX density matrix=1.00D-06.
 Requested convergence on             energy=1.00D-06.
 No special actions if energy rises.
 Fock matrices will be formed incrementally for  20 cycles.

 Cycle   1  Pass 1  IDiag  1:
 FoFJK:  IHMeth= 1 ICntrl=       0 DoSepK=F KAlg= 0 I1Cent=   0 FoldK=F
 IRaf= 880000000 NMat=   1 IRICut=       1 DoRegI=T DoRafI=F ISym2E= 0.
 FoFCou: FMM=F IPFlag=           0 FMFlag=      100000 FMFlg1=           0
         NFxFlg=           0 DoJE=F BraDBF=F KetDBF=F FulRan=T
         wScrn=  0.000000 ICntrl=       0 IOpCl=  0 I1Cent=           0 NGrid=           0
         NMat0=    1 NMatS0=      1 NMatT0=    0 NMatD0=    1 NMtDS0=    0 NMtDT0=    0
 Symmetry not used in FoFCou.
 Defaulting to unpruned grid for atomic number  83.
 Defaulting to unpruned grid for atomic number  83.
 Defaulting to unpruned grid for atomic number  83.
 Defaulting to unpruned grid for atomic number  83.
 E= -7517.81079574418    
 DIIS: error= 6.22D-03 at cycle   1 NSaved=   1.
 NSaved= 1 IEnMin= 1 EnMin= -7517.81079574418     IErMin= 1 ErrMin= 6.22D-03
 ErrMax= 6.22D-03  0.00D+00 EMaxC= 1.00D-01 BMatC= 7.82D-03 BMatP= 7.82D-03
 IDIUse=3 WtCom= 9.38D-01 WtEn= 6.22D-02
 Coeff-Com:  0.100D+01
 Coeff-En:   0.100D+01
 Coeff:      0.100D+01
 Gap=     7.496 Goal=   None    Shift=    0.000
 GapD=    7.496 DampG=2.000 DampE=1.000 DampFc=2.0000 IDamp=-1.
 RMSDP=1.82D-04 MaxDP=4.76D-03              OVMax= 2.38D-02

 Cycle   2  Pass 1  IDiag  1:
 RMSU=  1.81D-04    CP:  1.00D+00
 E= -7517.81081195147     Delta-E=       -0.000016207283 Rises=F Damp=F
 DIIS: error= 1.37D-03 at cycle   2 NSaved=   2.
 NSaved= 2 IEnMin= 2 EnMin= -7517.81081195147     IErMin= 2 ErrMin= 1.37D-03
 ErrMax= 1.37D-03  0.00D+00 EMaxC= 1.00D-01 BMatC= 1.55D-03 BMatP= 7.82D-03
 IDIUse=3 WtCom= 9.86D-01 WtEn= 1.37D-02
 Coeff-Com:  0.204D+00 0.796D+00
 Coeff-En:   0.495D+00 0.505D+00
 Coeff:      0.208D+00 0.792D+00
 Gap=     0.122 Goal=   None    Shift=    0.000
 RMSDP=2.06D-04 MaxDP=8.28D-03 DE=-1.62D-05 OVMax= 1.73D-02

 Cycle   3  Pass 1  IDiag  1:
 RMSU=  1.87D-04    CP:  9.99D-01  5.49D-01
 E= -7517.80901601942     Delta-E=        0.001795932048 Rises=F Damp=F
 DIIS: error= 1.93D-03 at cycle   3 NSaved=   3.
 NSaved= 3 IEnMin= 2 EnMin= -7517.81081195147     IErMin= 2 ErrMin= 1.37D-03
 ErrMax= 1.93D-03  0.00D+00 EMaxC= 1.00D-01 BMatC= 3.62D-03 BMatP= 1.55D-03
 IDIUse=3 WtCom= 1.85D-01 WtEn= 8.15D-01
 Coeff-Com:  0.684D-02 0.603D+00 0.390D+00
 Coeff-En:   0.000D+00 0.661D+00 0.339D+00
 Coeff:      0.127D-02 0.650D+00 0.348D+00
 Gap=     0.124 Goal=   None    Shift=    0.000
 RMSDP=1.14D-04 MaxDP=4.64D-03 DE= 1.80D-03 OVMax= 1.32D-02

 Cycle   4  Pass 1  IDiag  1:
 RMSU=  4.00D-05    CP:  9.99D-01  8.09D-01  4.92D-01
 E= -7517.81188624758     Delta-E=       -0.002870228163 Rises=F Damp=F
 DIIS: error= 4.57D-04 at cycle   4 NSaved=   4.
 NSaved= 4 IEnMin= 4 EnMin= -7517.81188624758     IErMin= 4 ErrMin= 4.57D-04
 ErrMax= 4.57D-04  0.00D+00 EMaxC= 1.00D-01 BMatC= 1.91D-04 BMatP= 1.55D-03
 IDIUse=3 WtCom= 9.95D-01 WtEn= 4.57D-03
 Coeff-Com:  0.111D-03 0.434D+00 0.239D+00 0.328D+00
 Coeff-En:   0.000D+00 0.768D-01 0.000D+00 0.923D+00
 Coeff:      0.110D-03 0.432D+00 0.238D+00 0.330D+00
 Gap=     0.124 Goal=   None    Shift=    0.000
 RMSDP=3.66D-05 MaxDP=1.52D-03 DE=-2.87D-03 OVMax= 4.36D-03

 Cycle   5  Pass 1  IDiag  1:
 RMSU=  1.50D-05    CP:  9.99D-01  8.60D-01  4.47D-01  2.26D-01
 E= -7517.81204023138     Delta-E=       -0.000153983798 Rises=F Damp=F
 DIIS: error= 1.20D-04 at cycle   5 NSaved=   5.
 NSaved= 5 IEnMin= 5 EnMin= -7517.81204023138     IErMin= 5 ErrMin= 1.20D-04
 ErrMax= 1.20D-04  0.00D+00 EMaxC= 1.00D-01 BMatC= 1.82D-05 BMatP= 1.91D-04
 IDIUse=3 WtCom= 9.99D-01 WtEn= 1.20D-03
 Coeff-Com: -0.985D-03 0.225D+00 0.113D+00 0.256D+00 0.406D+00
 Coeff-En:   0.000D+00 0.000D+00 0.000D+00 0.126D+00 0.874D+00
 Coeff:     -0.984D-03 0.225D+00 0.113D+00 0.256D+00 0.407D+00
 Gap=     0.124 Goal=   None    Shift=    0.000
 RMSDP=1.07D-05 MaxDP=5.33D-04 DE=-1.54D-04 OVMax= 1.38D-03

 Cycle   6  Pass 1  IDiag  1:
 RMSU=  3.76D-06    CP:  9.99D-01  8.69D-01  4.40D-01  4.15D-01  5.92D-01
 E= -7517.81205970908     Delta-E=       -0.000019477702 Rises=F Damp=F
 DIIS: error= 1.40D-05 at cycle   6 NSaved=   6.
 NSaved= 6 IEnMin= 6 EnMin= -7517.81205970908     IErMin= 6 ErrMin= 1.40D-05
 ErrMax= 1.40D-05  0.00D+00 EMaxC= 1.00D-01 BMatC= 3.27D-07 BMatP= 1.82D-05
 IDIUse=1 WtCom= 1.00D+00 WtEn= 0.00D+00
 Coeff-Com: -0.408D-03 0.606D-01 0.312D-01 0.815D-01 0.173D+00 0.654D+00
 Coeff:     -0.408D-03 0.606D-01 0.312D-01 0.815D-01 0.173D+00 0.654D+00
 Gap=     0.124 Goal=   None    Shift=    0.000
 RMSDP=2.50D-06 MaxDP=1.89D-04 DE=-1.95D-05 OVMax= 3.37D-04

 Cycle   7  Pass 1  IDiag  1:
 RMSU=  2.13D-06    CP:  9.99D-01  8.72D-01  4.43D-01  4.08D-01  6.52D-01
                    CP:  9.30D-01
 E= -7517.81205975627     Delta-E=       -0.000000047192 Rises=F Damp=F
 DIIS: error= 1.62D-05 at cycle   7 NSaved=   7.
 NSaved= 7 IEnMin= 7 EnMin= -7517.81205975627     IErMin= 6 ErrMin= 1.40D-05
 ErrMax= 1.62D-05  0.00D+00 EMaxC= 1.00D-01 BMatC= 2.28D-07 BMatP= 3.27D-07
 IDIUse=1 WtCom= 1.00D+00 WtEn= 0.00D+00
 Coeff-Com: -0.145D-03 0.799D-02 0.523D-02 0.198D-01 0.632D-01 0.495D+00
 Coeff-Com:  0.409D+00
 Coeff:     -0.145D-03 0.799D-02 0.523D-02 0.198D-01 0.632D-01 0.495D+00
 Coeff:      0.409D+00
 Gap=     0.124 Goal=   None    Shift=    0.000
 RMSDP=1.95D-06 MaxDP=8.90D-05 DE=-4.72D-08 OVMax= 2.21D-04

 Cycle   8  Pass 1  IDiag  1:
 RMSU=  1.03D-06    CP:  9.99D-01  8.73D-01  4.45D-01  4.13D-01  6.61D-01
                    CP:  1.13D+00  3.52D-01
 E= -7517.81205996492     Delta-E=       -0.000000208642 Rises=F Damp=F
 DIIS: error= 1.02D-05 at cycle   8 NSaved=   8.
 NSaved= 8 IEnMin= 8 EnMin= -7517.81205996492     IErMin= 8 ErrMin= 1.02D-05
 ErrMax= 1.02D-05  0.00D+00 EMaxC= 1.00D-01 BMatC= 7.93D-08 BMatP= 2.28D-07
 IDIUse=1 WtCom= 1.00D+00 WtEn= 0.00D+00
 Coeff-Com:  0.155D-04-0.157D-01-0.674D-02-0.113D-01-0.534D-02 0.220D+00
 Coeff-Com:  0.377D+00 0.442D+00
 Coeff:      0.155D-04-0.157D-01-0.674D-02-0.113D-01-0.534D-02 0.220D+00
 Coeff:      0.377D+00 0.442D+00
 Gap=     0.124 Goal=   None    Shift=    0.000
 RMSDP=8.57D-07 MaxDP=3.06D-05 DE=-2.09D-07 OVMax= 1.02D-04

 Cycle   9  Pass 1  IDiag  1:
 RMSU=  3.00D-07    CP:  9.99D-01  8.74D-01  4.46D-01  4.16D-01  6.71D-01
                    CP:  1.16D+00  5.86D-01  4.65D-01
 E= -7517.81206006531     Delta-E=       -0.000000100397 Rises=F Damp=F
 DIIS: error= 1.23D-06 at cycle   9 NSaved=   9.
 NSaved= 9 IEnMin= 9 EnMin= -7517.81206006531     IErMin= 9 ErrMin= 1.23D-06
 ErrMax= 1.23D-06  0.00D+00 EMaxC= 1.00D-01 BMatC= 2.65D-09 BMatP= 7.93D-08
 IDIUse=1 WtCom= 1.00D+00 WtEn= 0.00D+00
 Coeff-Com:  0.226D-04-0.941D-02-0.412D-02-0.790D-02-0.896D-02 0.736D-01
 Coeff-Com:  0.181D+00 0.255D+00 0.521D+00
 Coeff:      0.226D-04-0.941D-02-0.412D-02-0.790D-02-0.896D-02 0.736D-01
 Coeff:      0.181D+00 0.255D+00 0.521D+00
 Gap=     0.124 Goal=   None    Shift=    0.000
 RMSDP=1.74D-07 MaxDP=1.12D-05 DE=-1.00D-07 OVMax= 3.03D-05

 Cycle  10  Pass 1  IDiag  1:
 RMSU=  9.66D-08    CP:  9.99D-01  8.74D-01  4.46D-01  4.17D-01  6.77D-01
                    CP:  1.16D+00  5.96D-01  5.45D-01  8.03D-01
 E= -7517.81206006827     Delta-E=       -0.000000002954 Rises=F Damp=F
 DIIS: error= 2.49D-07 at cycle  10 NSaved=  10.
 NSaved=10 IEnMin=10 EnMin= -7517.81206006827     IErMin=10 ErrMin= 2.49D-07
 ErrMax= 2.49D-07  0.00D+00 EMaxC= 1.00D-01 BMatC= 7.36D-11 BMatP= 2.65D-09
 IDIUse=1 WtCom= 1.00D+00 WtEn= 0.00D+00
 Coeff-Com:  0.215D-05-0.877D-04 0.165D-04-0.327D-03-0.139D-02-0.966D-02
 Coeff-Com: -0.574D-02 0.926D-03 0.124D+00 0.892D+00
 Coeff:      0.215D-05-0.877D-04 0.165D-04-0.327D-03-0.139D-02-0.966D-02
 Coeff:     -0.574D-02 0.926D-03 0.124D+00 0.892D+00
 Gap=     0.124 Goal=   None    Shift=    0.000
 RMSDP=5.93D-08 MaxDP=1.84D-06 DE=-2.95D-09 OVMax= 1.18D-05

 Cycle  11  Pass 1  IDiag  1:
 RMSU=  2.68D-08    CP:  9.99D-01  8.74D-01  4.46D-01  4.17D-01  6.78D-01
                    CP:  1.17D+00  6.01D-01  5.51D-01  8.96D-01  1.13D+00
 E= -7517.81206006839     Delta-E=       -0.000000000124 Rises=F Damp=F
 DIIS: error= 1.15D-07 at cycle  11 NSaved=  11.
 NSaved=11 IEnMin=11 EnMin= -7517.81206006839     IErMin=11 ErrMin= 1.15D-07
 ErrMax= 1.15D-07  0.00D+00 EMaxC= 1.00D-01 BMatC= 1.82D-11 BMatP= 7.36D-11
 IDIUse=1 WtCom= 1.00D+00 WtEn= 0.00D+00
 Coeff-Com: -0.607D-06 0.676D-03 0.319D-03 0.483D-03-0.814D-04-0.104D-01
 Coeff-Com: -0.168D-01-0.197D-01 0.262D-01 0.463D+00 0.556D+00
 Coeff:     -0.607D-06 0.676D-03 0.319D-03 0.483D-03-0.814D-04-0.104D-01
 Coeff:     -0.168D-01-0.197D-01 0.262D-01 0.463D+00 0.556D+00
 Gap=     0.124 Goal=   None    Shift=    0.000
 RMSDP=1.82D-08 MaxDP=9.12D-07 DE=-1.24D-10 OVMax= 3.13D-06

 Cycle  12  Pass 1  IDiag  1:
 RMSU=  1.07D-08    CP:  9.99D-01  8.74D-01  4.46D-01  4.18D-01  6.78D-01
                    CP:  1.17D+00  6.03D-01  5.52D-01  9.13D-01  1.19D+00
                    CP:  7.47D-01
 E= -7517.81206006853     Delta-E=       -0.000000000142 Rises=F Damp=F
 DIIS: error= 5.96D-08 at cycle  12 NSaved=  12.
 NSaved=12 IEnMin=12 EnMin= -7517.81206006853     IErMin=12 ErrMin= 5.96D-08
 ErrMax= 5.96D-08  0.00D+00 EMaxC= 1.00D-01 BMatC= 1.94D-12 BMatP= 1.82D-11
 IDIUse=1 WtCom= 1.00D+00 WtEn= 0.00D+00
 Coeff-Com: -0.484D-06 0.340D-03 0.155D-03 0.264D-03 0.118D-03-0.426D-02
 Coeff-Com: -0.791D-02-0.101D-01-0.265D-02 0.137D+00 0.299D+00 0.588D+00
 Coeff:     -0.484D-06 0.340D-03 0.155D-03 0.264D-03 0.118D-03-0.426D-02
 Coeff:     -0.791D-02-0.101D-01-0.265D-02 0.137D+00 0.299D+00 0.588D+00
 Gap=     0.124 Goal=   None    Shift=    0.000
 RMSDP=6.22D-09 MaxDP=4.54D-07 DE=-1.42D-10 OVMax= 6.98D-07

 SCF Done:  E(RPBE1PBE) =  -7517.81206007     A.U. after   12 cycles
            NFock= 12  Conv=0.62D-08     -V/T= 2.1284
 KE= 6.662147157622D+03 PE=-2.479073364013D+04 EE= 7.011074972361D+03
 Leave Link  502 at Thu Mar  8 07:17:15 2018, MaxMem=   536870912 cpu:      2102.4
 (Enter /share/apps//mg09/l701.exe)
 Compute integral first derivatives.
 ... and contract with generalized density number  0.
   1 Symmetry operations used in ECPInt.
 ECPInt:  NShTT=   10440 NPrTT=   41973 LenC2=    9670 LenP2D=   27718.
 LDataN:  DoStor=T MaxTD1= 9 Len=  602
 Leave Link  701 at Thu Mar  8 07:17:33 2018, MaxMem=   536870912 cpu:        67.9
 (Enter /share/apps//mg09/l702.exe)
 L702 exits ... SP integral derivatives will be done elsewhere.
 Leave Link  702 at Thu Mar  8 07:17:33 2018, MaxMem=   536870912 cpu:         0.1
 (Enter /share/apps//mg09/l703.exe)
 Compute integral first derivatives, UseDBF=F ICtDFT=           0.
 Integral derivatives from FoFJK, PRISM(SPDF).
 Calling FoFJK, ICntrl=      2127 FMM=F ISym2X=0 I1Cent= 0 IOpClX= 0 NMat=1 NMatS=1 NMatT=0.
 FoFJK:  IHMeth= 1 ICntrl=    2127 DoSepK=F KAlg= 0 I1Cent=   0 FoldK=F
 IRaf=         0 NMat=   1 IRICut=       1 DoRegI=T DoRafI=F ISym2E= 0.
 FoFCou: FMM=F IPFlag=           0 FMFlag=      100000 FMFlg1=         800
         NFxFlg=           0 DoJE=F BraDBF=F KetDBF=F FulRan=T
         wScrn=  0.000000 ICntrl=    2127 IOpCl=  0 I1Cent=           0 NGrid=           0
         NMat0=    1 NMatS0=      1 NMatT0=    0 NMatD0=    1 NMtDS0=    0 NMtDT0=    0
 Symmetry not used in FoFCou.
 Defaulting to unpruned grid for atomic number  83.
 Defaulting to unpruned grid for atomic number  83.
 Defaulting to unpruned grid for atomic number  83.
 Defaulting to unpruned grid for atomic number  83.
 Leave Link  703 at Thu Mar  8 07:20:20 2018, MaxMem=   536870912 cpu:       669.0
 (Enter /share/apps//mg09/l716.exe)
 Dipole        =-3.24238423D-01-1.44516369D-03-4.28722682D-01
 ***** Axes restored to original set *****
 -------------------------------------------------------------------
 Center     Atomic                   Forces (Hartrees/Bohr)
 Number     Number              X              Y              Z
 -------------------------------------------------------------------
      1       83          -0.001285692    0.000863870    0.000400300
      2       50           0.006010338    0.000032484    0.001241429
      3       83          -0.001250280   -0.000837303    0.000389198
      4       32          -0.000211981   -0.008079073   -0.004328970
      5       32           0.001578670   -0.000023379    0.005732991
      6       83           0.000448346   -0.001778195    0.000609255
      7       50          -0.005385829   -0.000044638   -0.000330360
      8       32          -0.000289802    0.008069995   -0.004319880
      9       83           0.000386230    0.001796239    0.000606037
 -------------------------------------------------------------------
 Cartesian Forces:  Max     0.008079073 RMS     0.003234785
 Leave Link  716 at Thu Mar  8 07:20:20 2018, MaxMem=   536870912 cpu:         0.1
 (Enter /share/apps//mg09/l103.exe)

 GradGradGradGradGradGradGradGradGradGradGradGradGradGradGradGradGradGrad
 Berny optimization.
 Search for a local minimum.
 Step number   2 out of a maximum of  100
 All quantities printed in internal units (Hartrees-Bohrs-Radians)
 Update second derivatives using D2CorN and points    1    2
 DE= -5.53D-03 DEPred=-4.06D-03 R= 1.36D+00
 TightC=F SS=  1.41D+00  RLast= 2.17D-01 DXNew= 5.0454D-01 6.5112D-01
 Trust test= 1.36D+00 RLast= 2.17D-01 DXMaxT set to 5.05D-01
 ITU=  1  0
     Eigenvalues ---    0.08026   0.09769   0.11399   0.12051   0.13449
     Eigenvalues ---    0.14120   0.14560   0.14966   0.16399   0.16884
     Eigenvalues ---    0.17888   0.22383   0.22554   0.24181   0.24982
     Eigenvalues ---    0.26136   0.26743   0.28143   0.28405   0.28425
     Eigenvalues ---    0.32041
 RFO step:  Lambda=-4.30657261D-04 EMin= 8.02575126D-02
 Quartic linear search produced a step of  0.61942.
 TrRot=  0.000168 -0.000003 -0.000245  0.000000 -0.000068  0.000000
 Variable       Old X    -DE/DX   Delta X   Delta X   Delta X     New X
                                 (Linear)    (Quad)   (Total)
    X1        2.95219  -0.00129  -0.02368   0.00860  -0.01482   2.93737
    Y1       -2.93590   0.00086   0.02252  -0.00800   0.01452  -2.92137
    Z1       -1.31150   0.00040   0.01372  -0.00530   0.00838  -1.30312
    X2       -4.69121   0.00601   0.05398   0.00253   0.05651  -4.63471
    Y2       -0.03021   0.00003   0.00028   0.00001   0.00028  -0.02993
    Z2        2.49655   0.00124  -0.00885   0.01769   0.00828   2.50482
    X3        2.91292  -0.00125  -0.02332   0.00858  -0.01449   2.89843
    Y3        2.97343  -0.00084  -0.02264   0.00830  -0.01435   2.95909
    Z3       -1.31204   0.00039   0.01371  -0.00527   0.00839  -1.30365
    X4       -0.31629  -0.00021   0.00108  -0.00103  -0.00004  -0.31633
    Y4        2.70397  -0.00808  -0.04046  -0.01527  -0.05573   2.64824
    Z4        3.86623  -0.00433  -0.02864  -0.00722  -0.03613   3.83010
    X5       -0.75268   0.00158   0.00709   0.00879   0.01635  -0.73633
    Y5       -0.00464  -0.00002  -0.00007  -0.00006  -0.00014  -0.00478
    Z5       -4.39873   0.00573   0.03774   0.00517   0.04261  -4.35611
    X6       -2.58818   0.00045   0.01750  -0.01214   0.00560  -2.58258
    Y6        3.88586  -0.00178  -0.03464   0.00521  -0.02943   3.85643
    Z6       -1.08390   0.00061   0.01091  -0.00276   0.00773  -1.07617
    X7        4.30734  -0.00539  -0.05010  -0.00321  -0.05337   4.25397
    Y7        0.02859  -0.00004  -0.00032  -0.00004  -0.00036   0.02823
    Z7        3.38607  -0.00033  -0.02084   0.00991  -0.01088   3.37519
    X8       -0.28138  -0.00029   0.00062  -0.00108  -0.00055  -0.28193
    Y8       -2.70669   0.00807   0.04043   0.01519   0.05561  -2.65109
    Z8        3.86654  -0.00432  -0.02868  -0.00722  -0.03616   3.83038
    X9       -2.53627   0.00039   0.01682  -0.01225   0.00482  -2.53146
    Y9       -3.91944   0.00180   0.03491  -0.00531   0.02959  -3.88985
[...]
     X          X                                                                                                                    
     X          X                                                                                                                    
     X          X                                                                                                                    
     X          X                                                                                                                    
     X                                                                                                                               
     X                                                                                                                               
     X                                                                                                                               
     X                                                                                                                               
     X                                                                                                                               
     X                                                                                                                               
     X                                                                                                                               
     X                                                                                                                               
     X                                                                                                                               
     X                                                                                                                               
     X                                                                                                                               
     X                                                                                                                               
 
 ***** Axes restored to original set *****
 -------------------------------------------------------------------
 Center     Atomic                   Forces (Hartrees/Bohr)
 Number     Number              X              Y              Z
 -------------------------------------------------------------------
      1       83          -0.000064862    0.000033806    0.000094664
      2       50          -0.000006630    0.000000030    0.000002405
      3       83          -0.000065273   -0.000035061    0.000094672
      4       32           0.000035463   -0.000016330   -0.000015331
      5       32           0.000011692    0.000001040   -0.000176839
      6       83          -0.000009332   -0.000055094    0.000009227
      7       50           0.000074186    0.000000425   -0.000003247
      8       32           0.000033783    0.000016739   -0.000014391
      9       83          -0.000009026    0.000054444    0.000008842
 -------------------------------------------------------------------
 Cartesian Forces:  Max     0.000176839 RMS     0.000052865
 Force constants in Cartesian coordinates: 
                1             2             3             4             5 
      1  0.823855D-01
      2 -0.911638D-02  0.590459D-01
      3  0.209968D-02  0.142531D-01  0.420870D-01
      4 -0.481763D-02 -0.977833D-03  0.172265D-02  0.798696D-01
      5  0.715441D-02  0.870051D-03 -0.665782D-03  0.173598D-03  0.535010D-01
      6  0.393304D-02  0.414130D-02 -0.180726D-02 -0.564551D-02 -0.368728D-04
      7 -0.468711D-02 -0.905619D-03  0.459187D-03 -0.473578D-02 -0.722712D-02
      8  0.121743D-02 -0.284649D-01  0.148163D-02  0.904723D-03  0.787714D-03
      9  0.478305D-03 -0.147003D-02  0.308994D-02  0.171356D-02  0.687944D-03
     10  0.587734D-03  0.338933D-02  0.573724D-02 -0.273272D-01 -0.168401D-01
     11 -0.211872D-02 -0.628893D-02 -0.369996D-02 -0.137860D-01 -0.691501D-02
     12  0.107555D-02 -0.100904D-02 -0.559861D-02 -0.464734D-02 -0.830598D-02
     13 -0.735116D-02  0.136653D-01 -0.968936D-02  0.108880D-02  0.150759D-04
     14  0.112198D-01 -0.866686D-02  0.278184D-02  0.144641D-04 -0.114775D-02
     15 -0.808392D-02  0.449268D-02 -0.943824D-02 -0.192424D-02 -0.130490D-04
     16 -0.374351D-02  0.357258D-02 -0.114773D-02 -0.699556D-02 -0.677521D-02
     17 -0.747660D-03 -0.426484D-02  0.242980D-02 -0.653859D-02 -0.167784D-01
     18  0.107466D-02 -0.261846D-02  0.263616D-02  0.639398D-02  0.177196D-01
     19 -0.545971D-02 -0.256209D-02 -0.640701D-02 -0.218768D-02  0.328297D-04
     20 -0.182127D-02 -0.863429D-02 -0.157962D-01  0.328142D-04 -0.719408D-02
     21 -0.675038D-02 -0.160794D-01 -0.241755D-01  0.520400D-03  0.370027D-05
     22 -0.219234D-02  0.681338D-03  0.164974D-02 -0.277237D-01  0.165647D-01
     23  0.185209D-02 -0.119155D-02  0.840180D-03  0.135115D-01 -0.651474D-02
     24  0.350000D-02  0.195732D-02 -0.577551D-02 -0.475785D-02  0.824490D-02
     25 -0.547218D-01 -0.774662D-02  0.557561D-02 -0.717089D-02  0.690181D-02
     26 -0.763968D-02 -0.240463D-02 -0.162465D-02  0.666539D-02 -0.166088D-01
     27  0.267307D-02 -0.366752D-02 -0.101790D-02  0.662434D-02 -0.176344D-01
                6             7             8             9            10 
      6  0.367897D-01
      7  0.398802D-02  0.821413D-01
      8 -0.408993D-02  0.941788D-02  0.592832D-01
      9 -0.180657D-02  0.228422D-02 -0.142275D-01  0.420918D-01
     10 -0.915214D-02 -0.215811D-02 -0.693559D-03  0.165950D-02  0.654595D-01
     11 -0.506684D-02 -0.186405D-02 -0.122457D-02 -0.819464D-03 -0.461653D-02
     12 -0.984298D-03  0.352419D-02 -0.191166D-02 -0.577376D-02  0.133974D-01
     13  0.475793D-02 -0.702463D-02 -0.136449D-01 -0.964932D-02 -0.324985D-02
     14  0.309558D-04 -0.111990D-01 -0.899329D-02 -0.290824D-02 -0.230127D-02
     15 -0.304754D-02 -0.802206D-02 -0.459865D-02 -0.943760D-02  0.638401D-04
     16  0.575290D-02 -0.549153D-01  0.706040D-02  0.555349D-02 -0.299294D-02
     17  0.162823D-01  0.695314D-02 -0.221181D-02  0.169727D-02  0.398315D-02
     18 -0.125397D-01  0.262426D-02  0.370254D-02 -0.101857D-02 -0.951337D-02
     19 -0.379362D-03 -0.551687D-02  0.260152D-02 -0.661363D-02 -0.299567D-01
     20 -0.213728D-05  0.186074D-02 -0.857120D-02  0.157086D-01  0.173765D-01
     21 -0.308410D-02 -0.696017D-02  0.159871D-01 -0.241816D-01  0.251413D-02
     22 -0.921915D-02  0.603132D-03 -0.329817D-02  0.568893D-02  0.123072D-02
     23  0.494679D-02  0.220878D-02 -0.630340D-02  0.377501D-02  0.481024D-03
     24 -0.985489D-03  0.106201D-02  0.102291D-02 -0.559988D-02 -0.168429D-02
     25  0.596427D-02 -0.370663D-02 -0.356529D-02 -0.111506D-02 -0.159321D-02
     26 -0.162056D-01  0.755263D-03 -0.430169D-02 -0.244360D-02 -0.778498D-03
     27 -0.125347D-01  0.104034D-02  0.263354D-02  0.263628D-02 -0.302231D-02
               11            12            13            14            15 
     11  0.507587D-01
     12  0.118283D-01  0.477124D-01
     13 -0.214099D-02  0.139204D-02  0.326486D-01
     14  0.947119D-03 -0.750351D-02 -0.164847D-03  0.579100D-01
     15  0.160073D-02 -0.583253D-02  0.636596D-02  0.421758D-04  0.685385D-01
     16  0.659314D-02 -0.101114D-01 -0.663402D-02  0.120802D-01  0.520138D-02
     17 -0.363697D-02  0.405958D-02  0.110864D-01 -0.202230D-01 -0.131401D-01
     18  0.519537D-02 -0.217173D-01  0.518776D-02 -0.158295D-01 -0.159748D-01
     19  0.139440D-01 -0.143326D-02  0.162340D-03  0.326520D-05  0.128381D-02
     20 -0.563733D-02 -0.138319D-02  0.280303D-05 -0.312724D-03  0.818164D-05
     21 -0.127323D-02  0.217294D-03 -0.463977D-02 -0.306917D-04 -0.299401D-02
     22 -0.168477D-03 -0.173663D-02 -0.330705D-02  0.224557D-02  0.844351D-04
     23 -0.226108D-01  0.397845D-02  0.208547D-02  0.100544D-02 -0.160089D-02
     24 -0.399871D-02 -0.435431D-02  0.129332D-02  0.751988D-02 -0.583370D-02
     25  0.415768D-02 -0.146050D-02 -0.633303D-02 -0.118981D-01  0.503079D-02
     26 -0.539221D-02  0.247040D-03 -0.109043D-01 -0.205190D-01  0.132089D-01
     27 -0.376620D-02 -0.366883D-02  0.498144D-02  0.158971D-01 -0.159801D-01
               16            17            18            19            20 
     16  0.775267D-01
     17 -0.199857D-01  0.593823D-01
     18 -0.417729D-02 -0.109707D-01  0.548228D-01
     19 -0.132521D-02  0.135126D-03 -0.943581D-03  0.750745D-01
     20  0.575431D-02 -0.344241D-03  0.356075D-03  0.249750D-03  0.371658D-01
     21 -0.202370D-02 -0.140671D-02 -0.105699D-02  0.168801D-01  0.111532D-03
     22 -0.154964D-02  0.828154D-03 -0.307161D-02 -0.295428D-01 -0.176891D-01
     23 -0.410750D-02 -0.543519D-02  0.372659D-02 -0.142573D-01 -0.605059D-02
     24 -0.145644D-02 -0.265571D-03 -0.366897D-02 -0.144837D-02  0.136561D-02
     25  0.629536D-03  0.428594D-02  0.242518D-02 -0.124782D-02 -0.576649D-02
     26 -0.419218D-02 -0.648790D-02 -0.128146D-02 -0.147080D-03 -0.421291D-03
     27  0.240882D-02  0.131410D-02 -0.148258D-02 -0.938738D-03 -0.368460D-03
               21            22            23            24            25 
     21  0.561153D-01
     22  0.250031D-02  0.653368D-01
     23  0.130761D-02  0.481084D-02  0.508776D-01
     24  0.216911D-03  0.135484D-01 -0.116512D-01  0.477168D-01
     25 -0.204095D-02 -0.285505D-02 -0.658487D-02 -0.100568D-01  0.769989D-01
     26  0.138006D-02 -0.397484D-02 -0.377677D-02 -0.419516D-02  0.202160D-01
     27 -0.105725D-02 -0.944440D-02 -0.532256D-02 -0.217158D-01 -0.432257D-02
               26            27 
     26  0.599123D-01
     27  0.109144D-01  0.548209D-01
 Leave Link  716 at Thu Mar  8 09:19:36 2018, MaxMem=   536870912 cpu:         0.1
 (Enter /share/apps//mg09/l103.exe)

 GradGradGradGradGradGradGradGradGradGradGradGradGradGradGradGradGradGrad
 Berny optimization.
 Search for a local minimum.
 Step number   1 out of a maximum of    2
 All quantities printed in internal units (Hartrees-Bohrs-Radians)
 Second derivative matrix not updated -- analytic derivatives used.
 ITU=  0
     Eigenvalues ---    0.00589   0.00956   0.02950   0.03762   0.03818
     Eigenvalues ---    0.04975   0.05118   0.05707   0.05845   0.06226
     Eigenvalues ---    0.06854   0.07142   0.07603   0.08440   0.09235
     Eigenvalues ---    0.10372   0.11746   0.12048   0.13704   0.15035
     Eigenvalues ---    0.15200
 Angle between quadratic step and forces=  52.19 degrees.
 Linear search not attempted -- first point.
 TrRot=  0.000296  0.000003 -0.000251  0.000000 -0.000039  0.000000
 Variable       Old X    -DE/DX   Delta X   Delta X   Delta X     New X
                                 (Linear)    (Quad)   (Total)
    X1        2.93905  -0.00006   0.00000  -0.00429  -0.00394   2.93511
    Y1       -2.94423   0.00003   0.00000  -0.00262  -0.00262  -2.94685
    Z1       -1.30544   0.00009   0.00000   0.00497   0.00483  -1.30061
    X2       -4.65043  -0.00001   0.00000   0.00012   0.00032  -4.65011
    Y2       -0.03011   0.00000   0.00000   0.00000   0.00000  -0.03010
    Z2        2.53458   0.00000   0.00000   0.00855   0.00812   2.54270
    X3        2.90028  -0.00007   0.00000  -0.00435  -0.00401   2.89628
    Y3        2.98247  -0.00004   0.00000   0.00257   0.00258   2.98505
    Z3       -1.30597   0.00009   0.00000   0.00501   0.00487  -1.30109
    X4       -0.31294   0.00004   0.00000   0.00296   0.00311  -0.30983
    Y4        2.60693  -0.00002   0.00000   0.00173   0.00173   2.60866
    Z4        3.79855  -0.00002   0.00000  -0.00279  -0.00306   3.79549
    X5       -0.71505   0.00001   0.00000   0.00831   0.00878  -0.70627
    Y5       -0.00494   0.00000   0.00000   0.00006   0.00007  -0.00487
    Z5       -4.32227  -0.00018   0.00000  -0.00609  -0.00637  -4.32864
    X6       -2.59443  -0.00001   0.00000  -0.00524  -0.00490  -2.59933
    Y6        3.86748  -0.00006   0.00000  -0.00725  -0.00725   3.86023
    Z6       -1.08220   0.00001   0.00000  -0.00272  -0.00308  -1.08528
    X7        4.26232   0.00007   0.00000   0.00235   0.00251   4.26483
    Y7        0.02833   0.00000   0.00000  -0.00002  -0.00002   0.02832
    Z7        3.39133   0.00000   0.00000   0.00083   0.00075   3.39208
    X8       -0.27875   0.00003   0.00000   0.00293   0.00307  -0.27568
    Y8       -2.60993   0.00002   0.00000  -0.00166  -0.00166  -2.61160
    Z8        3.79895  -0.00001   0.00000  -0.00274  -0.00301   3.79594
    X9       -2.54362  -0.00001   0.00000  -0.00529  -0.00495  -2.54856
    Y9       -3.90105   0.00005   0.00000   0.00717   0.00717  -3.89388
    Z9       -1.08155   0.00001   0.00000  -0.00272  -0.00307  -1.08462
         Item               Value     Threshold  Converged?
 Maximum Force            0.000177     0.000450     YES
 RMS     Force            0.000053     0.000300     YES
 Maximum Displacement     0.008779     0.001800     NO 
 RMS     Displacement     0.004291     0.001200     NO 
 Predicted change in Energy=-1.879237D-06
 GradGradGradGradGradGradGradGradGradGradGradGradGradGradGradGradGradGrad

 Leave Link  103 at Thu Mar  8 09:19:36 2018, MaxMem=   536870912 cpu:         0.1
 (Enter /share/apps//mg09/l9999.exe)
 1\1\GINC-COMPUTE-0-4\Freq\RPBE1PBE\def2TZVP\Bi4Ge3Sn2\RODRIGO\08-Mar-2
 018\0\\#P Geom=AllCheck Guess=TCheck SCRF=Check GenChk RPBE1PBE/def2TZ
 VP Freq\\01Final_coords.xyz_49\\0,1\Bi,1.5552784996,-1.5580192974,-0.6
 908076852\Sn,-2.4608990516,-0.0159317112,1.3412446002\Bi,1.5347628869,
 1.5782570703,-0.6910875888\Ge,-0.1656024689,1.3795270607,2.010103483\G
 e,-0.3783882445,-0.0026122281,-2.2872468029\Bi,-1.3729147678,2.0465844
 01,-0.5726762924\Sn,2.2555229356,0.014994151,1.7946159185\Ge,-0.147508
 1497,-1.3811179596,2.0103154653\Bi,-1.3460246398,-2.0643454867,-0.5723
 310977\\Version=ES64L-G09RevD.01\State=1-A\HF=-7517.8137307\RMSD=9.179
 e-09\RMSF=5.286e-05\ZeroPoint=0.0057781\Thermal=0.0232868\Dipole=0.315
 8956,0.0020227,-0.4482811\DipoleDeriv=-0.005469,0.0233797,-0.0567376,0
 .0173081,0.1005173,-0.0005369,-0.0035345,-0.0420003,-0.0189495,0.25317
 4,0.002137,-0.158516,0.0021391,-0.0754742,-0.0010192,-0.1420612,-0.000
 9136,0.1138947,-0.0049193,-0.0247719,-0.0567377,-0.0186896,0.0999736,-
 0.0002236,-0.0040811,0.0419341,-0.0189555,-0.136274,0.0703378,-0.05190
 88,0.0676981,-0.0337509,0.0776823,-0.0766394,-0.0379985,-0.0223331,-0.
 0541882,0.0005563,-0.0429426,0.0005594,-0.1395369,-0.0002633,0.0033799
 ,0.000043,0.102577,-0.1189896,0.0062629,0.0732045,-0.0732472,0.0590908
 ,-0.0751341,0.0223201,0.0044438,-0.1386685,0.3209475,0.0023559,0.27229
 28,0.0023526,-0.0351966,0.001798,0.2553641,0.0016884,0.1434418,-0.1344
 548,-0.0716596,-0.0508716,-0.0690308,-0.035582,-0.0783561,-0.0771117,0
 .036991,-0.0223309,-0.1198265,-0.0085982,0.072217,0.0709102,0.0599588,
 0.0760529,0.0223638,-0.0041879,-0.1386759\Polar=400.500679,0.2030897,3
 69.6232304,3.1480712,0.0203463,364.9468348\PG=C01 [X(Bi4Ge3Sn2)]\NImag
 =0\\0.08238550,-0.00911638,0.05904595,0.00209968,0.01425313,0.04208695
 ,-0.00481763,-0.00097783,0.00172265,0.07986962,0.00715441,0.00087005,-
 0.00066578,0.00017360,0.05350099,0.00393304,0.00414130,-0.00180726,-0.
 00564551,-0.00003687,0.03678967,-0.00468711,-0.00090562,0.00045919,-0.
 00473578,-0.00722712,0.00398802,0.08214131,0.00121743,-0.02846491,0.00
 148163,0.00090472,0.00078771,-0.00408993,0.00941788,0.05928315,0.00047
 830,-0.00147003,0.00308994,0.00171356,0.00068794,-0.00180657,0.0022842
 2,-0.01422748,0.04209179,0.00058773,0.00338933,0.00573724,-0.02732716,
 -0.01684011,-0.00915214,-0.00215811,-0.00069356,0.00165950,0.06545953,
 -0.00211872,-0.00628893,-0.00369996,-0.01378603,-0.00691501,-0.0050668
 4,-0.00186405,-0.00122457,-0.00081946,-0.00461653,0.05075871,0.0010755
 5,-0.00100904,-0.00559861,-0.00464734,-0.00830598,-0.00098430,0.003524
 19,-0.00191166,-0.00577376,0.01339739,0.01182830,0.04771237,-0.0073511
 6,0.01366530,-0.00968936,0.00108880,0.00001508,0.00475793,-0.00702463,
 -0.01364493,-0.00964932,-0.00324985,-0.00214099,0.00139204,0.03264861,
 0.01121978,-0.00866686,0.00278184,0.00001446,-0.00114775,0.00003096,-0
 .01119902,-0.00899329,-0.00290824,-0.00230127,0.00094712,-0.00750351,-
 0.00016485,0.05791001,-0.00808392,0.00449268,-0.00943824,-0.00192424,-
 0.00001305,-0.00304754,-0.00802206,-0.00459865,-0.00943760,0.00006384,
 0.00160073,-0.00583253,0.00636596,0.00004218,0.06853852,-0.00374351,0.
 00357258,-0.00114773,-0.00699556,-0.00677521,0.00575290,-0.05491532,0.
 00706040,0.00555349,-0.00299294,0.00659314,-0.01011144,-0.00663402,0.0
 1208017,0.00520138,0.07752666,-0.00074766,-0.00426484,0.00242980,-0.00
 653859,-0.01677839,0.01628235,0.00695314,-0.00221181,0.00169727,0.0039
 8315,-0.00363697,0.00405958,0.01108644,-0.02022298,-0.01314010,-0.0199
 8570,0.05938232,0.00107466,-0.00261846,0.00263616,0.00639398,0.0177195
 7,-0.01253972,0.00262426,0.00370254,-0.00101857,-0.00951337,0.00519537
 ,-0.02171732,0.00518776,-0.01582949,-0.01597478,-0.00417729,-0.0109707
 3,0.05482279,-0.00545971,-0.00256209,-0.00640701,-0.00218768,0.0000328
 3,-0.00037936,-0.00551687,0.00260152,-0.00661363,-0.02995672,0.0139439
 8,-0.00143326,0.00016234,0.00000327,0.00128381,-0.00132521,0.00013513,
 -0.00094358,0.07507450,-0.00182127,-0.00863429,-0.01579619,0.00003281,
 -0.00719408,-0.00000214,0.00186074,-0.00857120,0.01570858,0.01737646,-
 0.00563733,-0.00138319,0.00000280,-0.00031272,0.00000818,0.00575431,-0
 .00034424,0.00035608,0.00024975,0.03716575,-0.00675038,-0.01607938,-0.
 02417554,0.00052040,0.00000370,-0.00308410,-0.00696017,0.01598710,-0.0
 2418162,0.00251413,-0.00127323,0.00021729,-0.00463977,-0.00003069,-0.0
 0299401,-0.00202370,-0.00140671,-0.00105699,0.01688014,0.00011153,0.05
 611530,-0.00219234,0.00068134,0.00164974,-0.02772371,0.01656471,-0.009
 21915,0.00060313,-0.00329817,0.00568893,0.00123072,-0.00016848,-0.0017
 3663,-0.00330705,0.00224557,0.00008444,-0.00154964,0.00082815,-0.00307
 161,-0.02954284,-0.01768912,0.00250031,0.06533678,0.00185209,-0.001191
 55,0.00084018,0.01351146,-0.00651474,0.00494679,0.00220878,-0.00630340
 ,0.00377501,0.00048102,-0.02261081,0.00397845,0.00208547,0.00100544,-0
 .00160089,-0.00410750,-0.00543519,0.00372659,-0.01425730,-0.00605059,0
 .00130761,0.00481084,0.05087761,0.00350000,0.00195732,-0.00577551,-0.0
 0475785,0.00824490,-0.00098549,0.00106201,0.00102291,-0.00559988,-0.00
 168429,-0.00399871,-0.00435431,0.00129332,0.00751988,-0.00583370,-0.00
 145644,-0.00026557,-0.00366897,-0.00144837,0.00136561,0.00021691,0.013
 54837,-0.01165118,0.04771678,-0.05472177,-0.00774662,0.00557561,-0.007
 17089,0.00690181,0.00596427,-0.00370663,-0.00356529,-0.00111506,-0.001
 59321,0.00415768,-0.00146050,-0.00633303,-0.01189812,0.00503079,0.0006
 2954,0.00428594,0.00242518,-0.00124782,-0.00576649,-0.00204095,-0.0028
 5505,-0.00658487,-0.01005676,0.07699888,-0.00763968,-0.00240463,-0.001
 62465,0.00666539,-0.01660879,-0.01620561,0.00075526,-0.00430169,-0.002
 44360,-0.00077850,-0.00539221,0.00024704,-0.01090432,-0.02051897,0.013
 20893,-0.00419218,-0.00648790,-0.00128146,-0.00014708,-0.00042129,0.00
 138006,-0.00397484,-0.00377677,-0.00419516,0.02021595,0.05991225,0.002
 67307,-0.00366752,-0.00101790,0.00662434,-0.01763442,-0.01253468,0.001
 04034,0.00263354,0.00263628,-0.00302231,-0.00376620,-0.00366883,0.0049
 8144,0.01589707,-0.01598012,0.00240882,0.00131410,-0.00148258,-0.00093
 874,-0.00036846,-0.00105725,-0.00944440,-0.00532256,-0.02171583,-0.004
 32257,0.01091444,0.05482093\\0.00006486,-0.00003381,-0.00009466,0.0000
 0663,-0.00000003,-0.00000241,0.00006527,0.00003506,-0.00009467,-0.0000
 3546,0.00001633,0.00001533,-0.00001169,-0.00000104,0.00017684,0.000009
 33,0.00005509,-0.00000923,-0.00007419,-0.00000043,0.00000325,-0.000033
 78,-0.00001674,0.00001439,0.00000903,-0.00005444,-0.00000884\\\@


 ASKING DUMB QUESTIONS IS EASIER THAN CORECTING DUMB MISTAKES.
 Job cpu time:       0 days  3 hours 38 minutes 48.4 seconds.
 File lengths (MBytes):  RWF=    299 Int=      0 D2E=      0 Chk=     16 Scr=      1
 Normal termination of Gaussian 09 at Thu Mar  8 09:19:38 2018.
