 Entering Gaussian System, Link 0=/share/apps/mg09/g09
 Initial command:
 /share/apps//mg09/l1.exe "/state/partition1/gauss_tmp/Gau-30783.inp" -scrdir="/state/partition1/gauss_tmp/"
 Entering Link 1 = /share/apps//mg09/l1.exe PID=     30794.
  
 Copyright (c) 1988,1990,1992,1993,1995,1998,2003,2009,2013,
            Gaussian, Inc.  All Rights Reserved.
  
 This is part of the Gaussian(R) 09 program.  It is based on
 the Gaussian(R) 03 system (copyright 2003, Gaussian, Inc.),
 the Gaussian(R) 98 system (copyright 1998, Gaussian, Inc.),
 the Gaussian(R) 94 system (copyright 1995, Gaussian, Inc.),
 the Gaussian 92(TM) system (copyright 1992, Gaussian, Inc.),
 the Gaussian 90(TM) system (copyright 1990, Gaussian, Inc.),
 the Gaussian 88(TM) system (copyright 1988, Gaussian, Inc.),
 the Gaussian 86(TM) system (copyright 1986, Carnegie Mellon
 University), and the Gaussian 82(TM) system (copyright 1983,
 Carnegie Mellon University). Gaussian is a federally registered
 trademark of Gaussian, Inc.
  
 This software contains proprietary and confidential information,
 including trade secrets, belonging to Gaussian, Inc.
  
 This software is provided under written license and may be
 used, copied, transmitted, or stored only in accord with that
 written license.
  
 The following legend is applicable only to US Government
 contracts under FAR:
  
                    RESTRICTED RIGHTS LEGEND
  
 Use, reproduction and disclosure by the US Government is
 subject to restrictions as set forth in subparagraphs (a)
 and (c) of the Commercial Computer Software - Restricted
 Rights clause in FAR 52.227-19.
  
 Gaussian, Inc.
 340 Quinnipiac St., Bldg. 40, Wallingford CT 06492
  
  
 ---------------------------------------------------------------
 Warning -- This program may not be used in any manner that
 competes with the business of Gaussian, Inc. or will provide
 assistance to any competitor of Gaussian, Inc.  The licensee
 of this program is prohibited from giving any competitor of
 Gaussian, Inc. access to this program.  By using this program,
 the user acknowledges that Gaussian, Inc. is engaged in the
 business of creating and licensing software in the field of
 computational chemistry and represents and warrants to the
 licensee that it is not a competitor of Gaussian, Inc. and that
 it will not use this program in any manner prohibited above.
 ---------------------------------------------------------------
  

 Cite this work as:
 Gaussian 09, Revision D.01,
 M. J. Frisch, G. W. Trucks, H. B. Schlegel, G. E. Scuseria, 
 M. A. Robb, J. R. Cheeseman, G. Scalmani, V. Barone, B. Mennucci, 
 G. A. Petersson, H. Nakatsuji, M. Caricato, X. Li, H. P. Hratchian, 
 A. F. Izmaylov, J. Bloino, G. Zheng, J. L. Sonnenberg, M. Hada, 
 M. Ehara, K. Toyota, R. Fukuda, J. Hasegawa, M. Ishida, T. Nakajima, 
 Y. Honda, O. Kitao, H. Nakai, T. Vreven, J. A. Montgomery, Jr., 
 J. E. Peralta, F. Ogliaro, M. Bearpark, J. J. Heyd, E. Brothers, 
 K. N. Kudin, V. N. Staroverov, T. Keith, R. Kobayashi, J. Normand, 
 K. Raghavachari, A. Rendell, J. C. Burant, S. S. Iyengar, J. Tomasi, 
 M. Cossi, N. Rega, J. M. Millam, M. Klene, J. E. Knox, J. B. Cross, 
 V. Bakken, C. Adamo, J. Jaramillo, R. Gomperts, R. E. Stratmann, 
 O. Yazyev, A. J. Austin, R. Cammi, C. Pomelli, J. W. Ochterski, 
 R. L. Martin, K. Morokuma, V. G. Zakrzewski, G. A. Voth, 
 P. Salvador, J. J. Dannenberg, S. Dapprich, A. D. Daniels, 
 O. Farkas, J. B. Foresman, J. V. Ortiz, J. Cioslowski, 
 and D. J. Fox, Gaussian, Inc., Wallingford CT, 2013.
 
 ******************************************
 Gaussian 09:  ES64L-G09RevD.01 24-Apr-2013
                 6-Mar-2018 
 ******************************************
 %NProcShared=4
 Will use up to    4 processors via shared memory.
 %LindaWorkers=compute-0-0
 %chk=Isomer_24.chk
 %NProc=4
 Will use up to    4 processors via shared memory.
 %mem=4GB
 SetLPE:  input flags=" -vv -opt "Tsnet.Node.lindarsharg: ssh" "
 SetLPE:    new flags=" -vv -opt "Tsnet.Node.lindarsharg: ssh"  -nodelist 'compute-0-0.local'"
 Will use up to    1 processors via Linda.
 ----------------------------------------------------------------------
 #p PBE1PBE/Def2TZVP scf=(maxcycle=768) opt=(cartesian,maxcycle=512) fr
 eq
 ----------------------------------------------------------------------
 1/6=512,10=7,14=-1,18=10,26=3,38=1/1,3;
 2/12=2,17=6,18=5,29=2,40=1/2;
 3/5=44,7=101,11=2,16=1,25=1,30=1,71=1,74=-13/1,2,3;
 4//1;
 5/5=2,7=768,38=5/2;
 6/7=2,8=2,9=2,10=2,28=1/1;
 7/7=1,29=1/1,2,3,16;
 1/6=512,10=7,14=-1,18=10,26=3/3(2);
 2/29=1/2;
 99/12=1/99;
 2/29=1/2;
 3/5=44,7=101,11=2,16=1,25=1,30=1,71=1,74=-13/1,2,3;
 4/5=5,16=3,69=1/1;
 5/5=2,7=768,38=5/2;
 7/7=1/1,2,3,16;
 1/6=512,14=-1,18=10,26=3/3(-5);
 2/29=1/2;
 6/7=2,8=2,9=2,10=2,19=2,28=1/1;
 99/9=1,12=1/99;
 Leave Link    1 at Tue Mar  6 11:56:29 2018, MaxMem=   536870912 cpu:         0.6
 (Enter /share/apps//mg09/l101.exe)
 ---------------------
 01Final_coords.xyz_24
 ---------------------
 Symbolic Z-matrix:
 Charge =  0 Multiplicity = 1
 50                    0.00019  -0.03176  -2.40164 
 32                    0.00067  -1.87575   2.21759 
 83                   -2.18843   1.16023  -0.61234 
 83                    2.18799   1.16094  -0.61204 
 83                    1.56838  -1.75936  -0.21198 
 32                    1.43168   0.45078   2.18048 
 50                   -0.00031   2.64404   0.92706 
 32                   -1.43215   0.45007   2.17987 
 83                   -1.56795  -1.7596   -0.21141 
 
 NAtoms=      9 NQM=        9 NQMF=       0 NMMI=      0 NMMIF=      0
                NMic=       0 NMicF=      0.
                    Isotopes and Nuclear Properties:
 (Nuclear quadrupole moments (NQMom) in fm**2, nuclear magnetic moments (NMagM)
  in nuclear magnetons)

  Atom         1           2           3           4           5           6           7           8           9
 IAtWgt=         118          74         209         209         209          74         118          74         209
 AtmWgt= 117.9018000  73.9211788 208.9804000 208.9804000 208.9804000  73.9211788 117.9018000  73.9211788 208.9804000
 NucSpn=           0           0           9           9           9           0           0           0           9
 AtZEff=   0.0000000   0.0000000   0.0000000   0.0000000   0.0000000   0.0000000   0.0000000   0.0000000   0.0000000
 NQMom=    0.0000000   0.0000000 -51.6000000 -51.6000000 -51.6000000   0.0000000   0.0000000   0.0000000 -51.6000000
 NMagM=    0.0000000   0.0000000   4.1106000   4.1106000   4.1106000   0.0000000   0.0000000   0.0000000   4.1106000
 AtZNuc=  50.0000000  32.0000000  83.0000000  83.0000000  83.0000000  32.0000000  50.0000000  32.0000000  83.0000000
 Leave Link  101 at Tue Mar  6 11:56:38 2018, MaxMem=   536870912 cpu:         0.5
 (Enter /share/apps//mg09/l103.exe)

 GradGradGradGradGradGradGradGradGradGradGradGradGradGradGradGradGradGrad
 Berny optimization.
 Initialization pass.
 No Z-matrix variables, so optimization will use Cartesian coordinates.
 Trust Radius=3.00D-01 FncErr=1.00D-07 GrdErr=1.00D-06
 Number of steps in this run=    100 maximum allowed number of steps=    100.
 GradGradGradGradGradGradGradGradGradGradGradGradGradGradGradGradGradGrad

 Leave Link  103 at Tue Mar  6 11:56:54 2018, MaxMem=   536870912 cpu:         0.1
 (Enter /share/apps//mg09/l202.exe)
 ---------------------------------------------------------------------------------------------------
                            Z-MATRIX (ANGSTROMS AND DEGREES)
   CD    Cent   Atom    N1       Length/X        N2       Alpha/Y        N3        Beta/Z          J
 ---------------------------------------------------------------------------------------------------
      1      1  Sn       0   0.000188         -0.031763         -2.401644
      2      2  Ge       0   0.000673         -1.875749          2.217594
      3      3  Bi       0  -2.188427          1.160228         -0.612340
      4      4  Bi       0   2.187993          1.160944         -0.612040
      5      5  Bi       0   1.568383         -1.759363         -0.211983
      6      6  Ge       0   1.431678          0.450779          2.180481
      7      7  Sn       0  -0.000313          2.644035          0.927057
      8      8  Ge       0  -1.432149          0.450070          2.179871
      9      9  Bi       0  -1.567952         -1.759602         -0.211407
 ---------------------------------------------------------------------------------------------------
                         Z-Matrix orientation:                         
 ---------------------------------------------------------------------
 Center     Atomic      Atomic             Coordinates (Angstroms)
 Number     Number       Type             X           Y           Z
 ---------------------------------------------------------------------
      1         50           0        0.000188   -0.031763   -2.401644
      2         32           0        0.000673   -1.875749    2.217594
      3         83           0       -2.188427    1.160228   -0.612340
      4         83           0        2.187993    1.160944   -0.612040
      5         83           0        1.568383   -1.759363   -0.211983
      6         32           0        1.431678    0.450779    2.180481
      7         50           0       -0.000313    2.644035    0.927057
      8         32           0       -1.432149    0.450070    2.179871
      9         83           0       -1.567952   -1.759602   -0.211407
 ---------------------------------------------------------------------
                    Distance matrix (angstroms):
                    1          2          3          4          5
     1  Sn   0.000000
     2  Ge   4.973695   0.000000
     3  Bi   3.067978   4.692317   0.000000
     4  Bi   3.067853   4.691770   4.376420   0.000000
     5  Bi   3.199758   2.893805   4.774717   3.012002   0.000000
     6  Ge   4.824716   2.731645   4.626913   2.979013   3.259954
     7  Sn   4.270848   4.700419   3.059292   3.058931   4.811251
     8  Ge   4.824317   2.732002   2.978712   4.626612   4.427838
     9  Bi   3.200254   2.893807   3.011834   4.774643   3.136335
                    6          7          8          9
     6  Ge   0.000000
     7  Sn   2.903798   0.000000
     8  Ge   2.863827   2.903994   0.000000
     9  Bi   4.427719   4.810989   3.258727   0.000000
 Stoichiometry    Bi4Ge3Sn2
 Framework group  C1[X(Bi4Ge3Sn2)]
 Deg. of freedom    21
 Full point group                 C1      NOp   1
 Largest Abelian subgroup         C1      NOp   1
 Largest concise Abelian subgroup C1      NOp   1
                         Standard orientation:                         
 ---------------------------------------------------------------------
 Center     Atomic      Atomic             Coordinates (Angstroms)
 Number     Number       Type             X           Y           Z
 ---------------------------------------------------------------------
      1         50           0        0.000188   -0.031763   -2.401644
      2         32           0        0.000673   -1.875749    2.217594
      3         83           0       -2.188427    1.160228   -0.612340
      4         83           0        2.187993    1.160944   -0.612040
      5         83           0        1.568383   -1.759363   -0.211983
      6         32           0        1.431678    0.450779    2.180481
      7         50           0       -0.000312    2.644035    0.927057
      8         32           0       -1.432149    0.450070    2.179871
      9         83           0       -1.567952   -1.759602   -0.211407
 ---------------------------------------------------------------------
 Rotational constants (GHZ):      0.1012099      0.0943852      0.0801746
 Leave Link  202 at Tue Mar  6 11:56:56 2018, MaxMem=   536870912 cpu:         0.1
 (Enter /share/apps//mg09/l301.exe)
 Standard basis: def2TZVP (5D, 7F)
 Ernie: Thresh=  0.10000D-02 Tol=  0.10000D-05 Strict=F.
 There are   519 symmetry adapted cartesian basis functions of A   symmetry.
 There are   444 symmetry adapted basis functions of A   symmetry.
   444 basis functions,   963 primitive gaussians,   519 cartesian basis functions
   116 alpha electrons      116 beta electrons
       nuclear repulsion energy      3575.6715037586 Hartrees.
 IExCor= 1009 DFT=T Ex+Corr=PBE1PBE ExCW=0 ScaHFX=  0.250000
 ScaDFX=  0.750000  0.750000  1.000000  1.000000 ScalE2=  1.000000  1.000000
 IRadAn=      0 IRanWt=     -1 IRanGd=            0 ICorTp=0 IEmpDi=  4
 NAtoms=    9 NActive=    9 NUniq=    9 SFac= 1.00D+00 NAtFMM=   60 NAOKFM=F Big=F
 Integral buffers will be    131072 words long.
 Raffenetti 2 integral format.
 Two-electron integral symmetry is turned on.
 Leave Link  301 at Tue Mar  6 11:57:10 2018, MaxMem=   536870912 cpu:         0.4
 (Enter /share/apps//mg09/l302.exe)
 NPDir=0 NMtPBC=     1 NCelOv=     1 NCel=       1 NClECP=     1 NCelD=      1
         NCelK=      1 NCelE2=     1 NClLst=     1 CellRange=     0.0.
 One-electron integrals computed using PRISM.
   1 Symmetry operations used in ECPInt.
 ECPInt:  NShTT=   10440 NPrTT=   41973 LenC2=    9686 LenP2D=   27445.
 LDataN:  DoStor=T MaxTD1= 8 Len=  415
 NBasis=   444 RedAO= T EigKep=  1.35D-03  NBF=   444
 NBsUse=   444 1.00D-06 EigRej= -1.00D+00 NBFU=   444
 Precomputing XC quadrature grid using
 IXCGrd= 4 IRadAn=           0 IRanWt=          -1 IRanGd=           0 AccXCQ= 0.00D+00.
 Defaulting to unpruned grid for atomic number  50.
 Defaulting to unpruned grid for atomic number  83.
 Defaulting to unpruned grid for atomic number  50.
 Generated NRdTot=       0 NPtTot=           0 NUsed=           0 NTot=          32
 NSgBfM=   498   498   498   498   498 MxSgAt=     9 MxSgA2=     9.
 Leave Link  302 at Tue Mar  6 11:57:27 2018, MaxMem=   536870912 cpu:        31.8
 (Enter /share/apps//mg09/l303.exe)
 DipDrv:  MaxL=1.
 Leave Link  303 at Tue Mar  6 11:57:34 2018, MaxMem=   536870912 cpu:         0.5
 (Enter /share/apps//mg09/l401.exe)
 ExpMin= 4.62D-02 ExpMax= 4.66D+05 ExpMxC= 4.50D+03 IAcc=2 IRadAn=         4 AccDes= 0.00D+00
 Harris functional with IExCor= 1009 and IRadAn=       4 diagonalized for initial guess.
 HarFok:  IExCor= 1009 AccDes= 0.00D+00 IRadAn=         4 IDoV= 1 UseB2=F ITyADJ=14
 ICtDFT=  3500011 ScaDFX=  1.000000  1.000000  1.000000  1.000000
 Defaulting to unpruned grid for atomic number  50.
 Defaulting to unpruned grid for atomic number  50.
 Defaulting to unpruned grid for atomic number  50.
 Defaulting to unpruned grid for atomic number  50.
 FoFCou: FMM=F IPFlag=           0 FMFlag=      100000 FMFlg1=           0
         NFxFlg=           0 DoJE=T BraDBF=F KetDBF=T FulRan=T
         wScrn=  0.000000 ICntrl=     500 IOpCl=  0 I1Cent=   200000004 NGrid=           0
         NMat0=    1 NMatS0=      1 NMatT0=    0 NMatD0=    1 NMtDS0=    0 NMtDT0=    0
 Petite list used in FoFCou.
 Harris En= -7518.61726614969    
 JPrj=0 DoOrth=F DoCkMO=F.
 Leave Link  401 at Tue Mar  6 11:57:44 2018, MaxMem=   536870912 cpu:        12.6
 (Enter /share/apps//mg09/l502.exe)
 Closed shell SCF:
 Using DIIS extrapolation, IDIIS=  1040.
 Integral symmetry usage will be decided dynamically.
 IVT=     1410107 IEndB=     1410107 NGot=   536870912 MDV=   536322046
 LenX=   536322046 LenY=   536052166
 Requested convergence on RMS density matrix=1.00D-08 within 768 cycles.
 Requested convergence on MAX density matrix=1.00D-06.
 Requested convergence on             energy=1.00D-06.
 No special actions if energy rises.
 Fock matrices will be formed incrementally for  20 cycles.

 Cycle   1  Pass 1  IDiag  1:
 FoFJK:  IHMeth= 1 ICntrl=       0 DoSepK=F KAlg= 0 I1Cent=   0 FoldK=F
 IRaf= 880000000 NMat=   1 IRICut=       1 DoRegI=T DoRafI=F ISym2E= 0.
 FoFCou: FMM=F IPFlag=           0 FMFlag=      100000 FMFlg1=           0
         NFxFlg=           0 DoJE=F BraDBF=F KetDBF=F FulRan=T
         wScrn=  0.000000 ICntrl=       0 IOpCl=  0 I1Cent=           0 NGrid=           0
         NMat0=    1 NMatS0=      1 NMatT0=    0 NMatD0=    1 NMtDS0=    0 NMtDT0=    0
 Symmetry not used in FoFCou.
 Defaulting to unpruned grid for atomic number  50.
 Defaulting to unpruned grid for atomic number  50.
 Defaulting to unpruned grid for atomic number  50.
 Defaulting to unpruned grid for atomic number  50.
 E= -7517.21174426047    
 DIIS: error= 3.60D-02 at cycle   1 NSaved=   1.
 NSaved= 1 IEnMin= 1 EnMin= -7517.21174426047     IErMin= 1 ErrMin= 3.60D-02
 ErrMax= 3.60D-02  0.00D+00 EMaxC= 1.00D-01 BMatC= 1.48D+00 BMatP= 1.48D+00
 IDIUse=3 WtCom= 6.40D-01 WtEn= 3.60D-01
 Coeff-Com:  0.100D+01
 Coeff-En:   0.100D+01
 Coeff:      0.100D+01
 Gap=     0.130 Goal=   None    Shift=    0.000
 GapD=    0.130 DampG=1.000 DampE=0.500 DampFc=0.5000 IDamp=-1.
 Damping current iteration by 5.00D-01
 RMSDP=5.99D-03 MaxDP=2.49D-01              OVMax= 9.85D-01

 Cycle   2  Pass 1  IDiag  1:
 RMSU=  2.99D-03    CP:  1.01D+00
 E= -7516.86342721657     Delta-E=        0.348317043903 Rises=F Damp=T
 DIIS: error= 1.81D-02 at cycle   2 NSaved=   2.
 NSaved= 2 IEnMin= 1 EnMin= -7517.21174426047     IErMin= 2 ErrMin= 1.81D-02
 ErrMax= 1.81D-02  0.00D+00 EMaxC= 1.00D-01 BMatC= 3.40D-01 BMatP= 1.48D+00
 IDIUse=3 WtCom= 8.19D-01 WtEn= 1.81D-01
 Coeff-Com:  0.182D+00 0.818D+00
 Coeff-En:   0.652D+00 0.348D+00
 Coeff:      0.267D+00 0.733D+00
 Gap=    -0.216 Goal=   None    Shift=    0.000
 RMSDP=4.09D-03 MaxDP=1.62D-01 DE= 3.48D-01 OVMax= 8.39D-01

 Cycle   3  Pass 1  IDiag  1:
 RMSU=  3.17D-03    CP:  1.00D+00  1.37D-01
 E= -7515.55696681755     Delta-E=        1.306460399021 Rises=F Damp=F
 DIIS: error= 3.96D-02 at cycle   3 NSaved=   3.
 NSaved= 3 IEnMin= 1 EnMin= -7517.21174426047     IErMin= 2 ErrMin= 1.81D-02
 ErrMax= 3.96D-02  0.00D+00 EMaxC= 1.00D-01 BMatC= 1.76D+00 BMatP= 3.40D-01
 IDIUse=2 WtCom= 0.00D+00 WtEn= 1.00D+00
 EnCoef did    11 forward-backward iterations
 Coeff-En:   0.579D+00 0.374D+00 0.470D-01
 Coeff:      0.579D+00 0.374D+00 0.470D-01
 Gap=     0.192 Goal=   None    Shift=    0.000
 RMSDP=3.49D-03 MaxDP=1.34D-01 DE= 1.31D+00 OVMax= 4.31D-01

 Cycle   4  Pass 1  IDiag  1:
 RMSU=  1.85D-03    CP:  1.01D+00  7.49D-01  2.65D-01
 E= -7517.65654434047     Delta-E=       -2.099577522917 Rises=F Damp=F
 DIIS: error= 1.49D-02 at cycle   4 NSaved=   4.
 NSaved= 4 IEnMin= 4 EnMin= -7517.65654434047     IErMin= 4 ErrMin= 1.49D-02
 ErrMax= 1.49D-02  0.00D+00 EMaxC= 1.00D-01 BMatC= 3.44D-01 BMatP= 3.40D-01
 IDIUse=3 WtCom= 8.51D-01 WtEn= 1.49D-01
 Coeff-Com:  0.327D+00-0.162D-01-0.250D-01 0.714D+00
 Coeff-En:   0.191D+00 0.000D+00 0.000D+00 0.809D+00
 Coeff:      0.307D+00-0.138D-01-0.213D-01 0.728D+00
 Gap=     0.106 Goal=   None    Shift=    0.000
 RMSDP=1.53D-03 MaxDP=6.71D-02 DE=-2.10D+00 OVMax= 1.32D-01

 Cycle   5  Pass 1  IDiag  1:
 RMSU=  9.06D-04    CP:  1.00D+00  5.04D-01  3.57D-02  6.38D-01
 E= -7517.72579072664     Delta-E=       -0.069246386174 Rises=F Damp=F
 DIIS: error= 8.17D-03 at cycle   5 NSaved=   5.
 NSaved= 5 IEnMin= 5 EnMin= -7517.72579072664     IErMin= 5 ErrMin= 8.17D-03
 ErrMax= 8.17D-03  0.00D+00 EMaxC= 1.00D-01 BMatC= 8.82D-02 BMatP= 3.40D-01
 IDIUse=3 WtCom= 9.18D-01 WtEn= 8.17D-02
 Coeff-Com:  0.191D+00-0.106D+00-0.227D-01 0.509D+00 0.429D+00
 Coeff-En:   0.000D+00 0.000D+00 0.000D+00 0.351D+00 0.649D+00
 Coeff:      0.176D+00-0.977D-01-0.209D-01 0.496D+00 0.447D+00
 Gap=     0.125 Goal=   None    Shift=    0.000
 RMSDP=1.04D-03 MaxDP=5.18D-02 DE=-6.92D-02 OVMax= 1.20D-01

 Cycle   6  Pass 1  IDiag  1:
 RMSU=  4.95D-04    CP:  1.00D+00  5.02D-01  1.29D-01  7.17D-01  6.01D-02
 E= -7517.78385253147     Delta-E=       -0.058061804830 Rises=F Damp=F
 DIIS: error= 4.83D-03 at cycle   6 NSaved=   6.
 NSaved= 6 IEnMin= 6 EnMin= -7517.78385253147     IErMin= 6 ErrMin= 4.83D-03
 ErrMax= 4.83D-03  0.00D+00 EMaxC= 1.00D-01 BMatC= 2.76D-02 BMatP= 8.82D-02
 IDIUse=3 WtCom= 9.52D-01 WtEn= 4.83D-02
 Coeff-Com:  0.577D-01-0.514D-01 0.908D-02 0.214D+00 0.353D+00 0.418D+00
 Coeff-En:   0.000D+00 0.000D+00 0.000D+00 0.000D+00 0.304D+00 0.696D+00
 Coeff:      0.549D-01-0.490D-01 0.864D-02 0.204D+00 0.351D+00 0.431D+00
 Gap=     0.118 Goal=   None    Shift=    0.000
 RMSDP=5.35D-04 MaxDP=1.95D-02 DE=-5.81D-02 OVMax= 6.10D-02

 Cycle   7  Pass 1  IDiag  1:
 RMSU=  2.64D-04    CP:  1.00D+00  4.91D-01  1.19D-01  7.00D-01  4.18D-01
                    CP:  3.33D-01
 E= -7517.80743930482     Delta-E=       -0.023586773354 Rises=F Damp=F
 DIIS: error= 2.22D-03 at cycle   7 NSaved=   7.
 NSaved= 7 IEnMin= 7 EnMin= -7517.80743930482     IErMin= 7 ErrMin= 2.22D-03
 ErrMax= 2.22D-03  0.00D+00 EMaxC= 1.00D-01 BMatC= 5.73D-03 BMatP= 2.76D-02
 IDIUse=3 WtCom= 9.78D-01 WtEn= 2.22D-02
 Coeff-Com:  0.229D-01-0.375D-01 0.601D-02 0.100D+00 0.208D+00 0.340D+00
 Coeff-Com:  0.360D+00
 Coeff-En:   0.000D+00 0.000D+00 0.000D+00 0.000D+00 0.000D+00 0.248D+00
 Coeff-En:   0.752D+00
 Coeff:      0.224D-01-0.367D-01 0.587D-02 0.981D-01 0.203D+00 0.338D+00
 Coeff:      0.369D+00
 Gap=     0.120 Goal=   None    Shift=    0.000
 RMSDP=2.28D-04 MaxDP=1.26D-02 DE=-2.36D-02 OVMax= 2.69D-02

 Cycle   8  Pass 1  IDiag  1:
 RMSU=  6.75D-05    CP:  1.00D+00  4.96D-01  1.16D-01  6.97D-01  3.63D-01
                    CP:  5.44D-01  3.14D-01
 E= -7517.81403449642     Delta-E=       -0.006595191600 Rises=F Damp=F
 DIIS: error= 6.66D-04 at cycle   8 NSaved=   8.
 NSaved= 8 IEnMin= 8 EnMin= -7517.81403449642     IErMin= 8 ErrMin= 6.66D-04
 ErrMax= 6.66D-04  0.00D+00 EMaxC= 1.00D-01 BMatC= 5.35D-04 BMatP= 5.73D-03
 IDIUse=3 WtCom= 9.93D-01 WtEn= 6.66D-03
 Coeff-Com:  0.873D-02-0.182D-01 0.477D-02 0.314D-01 0.628D-01 0.135D+00
 Coeff-Com:  0.245D+00 0.530D+00
 Coeff-En:   0.000D+00 0.000D+00 0.000D+00 0.000D+00 0.000D+00 0.000D+00
 Coeff-En:   0.877D-01 0.912D+00
 Coeff:      0.867D-02-0.181D-01 0.474D-02 0.311D-01 0.624D-01 0.134D+00
 Coeff:      0.244D+00 0.532D+00
 Gap=     0.119 Goal=   None    Shift=    0.000
 RMSDP=5.78D-05 MaxDP=3.25D-03 DE=-6.60D-03 OVMax= 7.19D-03

 Cycle   9  Pass 1  IDiag  1:
 RMSU=  2.82D-05    CP:  1.00D+00  4.94D-01  1.25D-01  7.00D-01  3.69D-01
                    CP:  5.08D-01  4.34D-01  7.14D-01
 E= -7517.81463876116     Delta-E=       -0.000604264738 Rises=F Damp=F
 DIIS: error= 1.67D-04 at cycle   9 NSaved=   9.
 NSaved= 9 IEnMin= 9 EnMin= -7517.81463876116     IErMin= 9 ErrMin= 1.67D-04
 ErrMax= 1.67D-04  0.00D+00 EMaxC= 1.00D-01 BMatC= 2.97D-05 BMatP= 5.35D-04
 IDIUse=3 WtCom= 9.98D-01 WtEn= 1.67D-03
 Coeff-Com:  0.290D-02-0.639D-02 0.718D-03 0.263D-02-0.703D-02 0.734D-02
 Coeff-Com:  0.464D-01 0.215D+00 0.738D+00
 Coeff-En:   0.000D+00 0.000D+00 0.000D+00 0.000D+00 0.000D+00 0.000D+00
 Coeff-En:   0.000D+00 0.000D+00 0.100D+01
 Coeff:      0.289D-02-0.638D-02 0.717D-03 0.262D-02-0.701D-02 0.733D-02
 Coeff:      0.463D-01 0.215D+00 0.739D+00
 Gap=     0.119 Goal=   None    Shift=    0.000
 RMSDP=2.08D-05 MaxDP=1.43D-03 DE=-6.04D-04 OVMax= 2.12D-03

 Cycle  10  Pass 1  IDiag  1:
 RMSU=  1.46D-05    CP:  1.00D+00  4.92D-01  1.25D-01  6.99D-01  3.61D-01
                    CP:  5.14D-01  4.47D-01  8.12D-01  7.23D-01
 E= -7517.81466782539     Delta-E=       -0.000029064229 Rises=F Damp=F
 DIIS: error= 8.95D-05 at cycle  10 NSaved=  10.
 NSaved=10 IEnMin=10 EnMin= -7517.81466782539     IErMin=10 ErrMin= 8.95D-05
 ErrMax= 8.95D-05  0.00D+00 EMaxC= 1.00D-01 BMatC= 8.10D-06 BMatP= 2.97D-05
 IDIUse=1 WtCom= 1.00D+00 WtEn= 0.00D+00
 Coeff-Com:  0.788D-03-0.175D-02 0.321D-03-0.224D-02-0.119D-01-0.129D-01
 Coeff-Com: -0.804D-02 0.537D-01 0.446D+00 0.536D+00
 Coeff:      0.788D-03-0.175D-02 0.321D-03-0.224D-02-0.119D-01-0.129D-01
 Coeff:     -0.804D-02 0.537D-01 0.446D+00 0.536D+00
 Gap=     0.119 Goal=   None    Shift=    0.000
 RMSDP=8.48D-06 MaxDP=7.01D-04 DE=-2.91D-05 OVMax= 8.62D-04

 Cycle  11  Pass 1  IDiag  1:
 RMSU=  3.08D-06    CP:  1.00D+00  4.92D-01  1.25D-01  6.98D-01  3.60D-01
                    CP:  5.17D-01  4.41D-01  8.10D-01  8.81D-01  6.16D-01
 E= -7517.81467740210     Delta-E=       -0.000009576710 Rises=F Damp=F
 DIIS: error= 1.86D-05 at cycle  11 NSaved=  11.
 NSaved=11 IEnMin=11 EnMin= -7517.81467740210     IErMin=11 ErrMin= 1.86D-05
 ErrMax= 1.86D-05  0.00D+00 EMaxC= 1.00D-01 BMatC= 3.94D-07 BMatP= 8.10D-06
 IDIUse=1 WtCom= 1.00D+00 WtEn= 0.00D+00
 Coeff-Com:  0.231D-03-0.442D-03 0.917D-04-0.701D-03-0.365D-02-0.623D-02
 Coeff-Com: -0.771D-02-0.240D-02 0.899D-01 0.186D+00 0.744D+00
 Coeff:      0.231D-03-0.442D-03 0.917D-04-0.701D-03-0.365D-02-0.623D-02
 Coeff:     -0.771D-02-0.240D-02 0.899D-01 0.186D+00 0.744D+00
 Gap=     0.119 Goal=   None    Shift=    0.000
 RMSDP=1.64D-06 MaxDP=7.96D-05 DE=-9.58D-06 OVMax= 1.91D-04

 Cycle  12  Pass 1  IDiag  1:
 RMSU=  1.00D-06    CP:  1.00D+00  4.92D-01  1.26D-01  6.98D-01  3.60D-01
                    CP:  5.16D-01  4.42D-01  8.14D-01  8.97D-01  6.46D-01
                    CP:  8.62D-01
 E= -7517.81467786409     Delta-E=       -0.000000461983 Rises=F Damp=F
 DIIS: error= 6.10D-06 at cycle  12 NSaved=  12.
 NSaved=12 IEnMin=12 EnMin= -7517.81467786409     IErMin=12 ErrMin= 6.10D-06
 ErrMax= 6.10D-06  0.00D+00 EMaxC= 1.00D-01 BMatC= 4.10D-08 BMatP= 3.94D-07
 IDIUse=1 WtCom= 1.00D+00 WtEn= 0.00D+00
 Coeff-Com:  0.823D-04-0.135D-03 0.188D-04-0.640D-04-0.706D-03-0.179D-02
 Coeff-Com: -0.297D-02-0.588D-02-0.457D-03 0.409D-01 0.336D+00 0.635D+00
 Coeff:      0.823D-04-0.135D-03 0.188D-04-0.640D-04-0.706D-03-0.179D-02
 Coeff:     -0.297D-02-0.588D-02-0.457D-03 0.409D-01 0.336D+00 0.635D+00
 Gap=     0.119 Goal=   None    Shift=    0.000
 RMSDP=8.47D-07 MaxDP=4.11D-05 DE=-4.62D-07 OVMax= 9.14D-05

 Cycle  13  Pass 1  IDiag  1:
 RMSU=  6.63D-07    CP:  1.00D+00  4.92D-01  1.26D-01  6.98D-01  3.60D-01
                    CP:  5.16D-01  4.42D-01  8.16D-01  8.96D-01  6.63D-01
                    CP:  9.13D-01  6.96D-01
 E= -7517.81467787941     Delta-E=       -0.000000015327 Rises=F Damp=F
 DIIS: error= 5.72D-06 at cycle  13 NSaved=  13.
 NSaved=13 IEnMin=13 EnMin= -7517.81467787941     IErMin=13 ErrMin= 5.72D-06
 ErrMax= 5.72D-06  0.00D+00 EMaxC= 1.00D-01 BMatC= 2.79D-08 BMatP= 4.10D-08
 IDIUse=1 WtCom= 1.00D+00 WtEn= 0.00D+00
 Coeff-Com:  0.373D-04-0.510D-04 0.557D-05 0.388D-04-0.103D-03-0.629D-03
 Coeff-Com: -0.138D-02-0.455D-02-0.125D-01 0.773D-02 0.172D+00 0.505D+00
 Coeff-Com:  0.334D+00
 Coeff:      0.373D-04-0.510D-04 0.557D-05 0.388D-04-0.103D-03-0.629D-03
 Coeff:     -0.138D-02-0.455D-02-0.125D-01 0.773D-02 0.172D+00 0.505D+00
 Coeff:      0.334D+00
 Gap=     0.119 Goal=   None    Shift=    0.000
 RMSDP=5.69D-07 MaxDP=2.31D-05 DE=-1.53D-08 OVMax= 7.26D-05

 Cycle  14  Pass 1  IDiag  1:
 RMSU=  2.41D-07    CP:  1.00D+00  4.92D-01  1.26D-01  6.98D-01  3.60D-01
                    CP:  5.16D-01  4.42D-01  8.16D-01  8.97D-01  6.65D-01
                    CP:  9.19D-01  8.93D-01  2.91D-01
 E= -7517.81467791353     Delta-E=       -0.000000034121 Rises=F Damp=F
 DIIS: error= 1.75D-06 at cycle  14 NSaved=  14.
 NSaved=14 IEnMin=14 EnMin= -7517.81467791353     IErMin=14 ErrMin= 1.75D-06
 ErrMax= 1.75D-06  0.00D+00 EMaxC= 1.00D-01 BMatC= 3.25D-09 BMatP= 2.79D-08
 IDIUse=1 WtCom= 1.00D+00 WtEn= 0.00D+00
 Coeff-Com:  0.324D-05 0.469D-05 0.204D-06 0.472D-04 0.130D-03 0.648D-04
 Coeff-Com: -0.154D-03-0.194D-02-0.984D-02-0.756D-02 0.338D-01 0.200D+00
 Coeff-Com:  0.262D+00 0.524D+00
 Coeff:      0.324D-05 0.469D-05 0.204D-06 0.472D-04 0.130D-03 0.648D-04
 Coeff:     -0.154D-03-0.194D-02-0.984D-02-0.756D-02 0.338D-01 0.200D+00
 Coeff:      0.262D+00 0.524D+00
 Gap=     0.119 Goal=   None    Shift=    0.000
 RMSDP=1.64D-07 MaxDP=6.56D-06 DE=-3.41D-08 OVMax= 2.03D-05

 Cycle  15  Pass 1  IDiag  1:
 RMSU=  6.33D-08    CP:  1.00D+00  4.92D-01  1.26D-01  6.98D-01  3.60D-01
                    CP:  5.16D-01  4.42D-01  8.16D-01  8.97D-01  6.64D-01
                    CP:  9.32D-01  8.85D-01  4.66D-01  6.96D-01
 E= -7517.81467791754     Delta-E=       -0.000000004009 Rises=F Damp=F
 DIIS: error= 3.14D-07 at cycle  15 NSaved=  15.
 NSaved=15 IEnMin=15 EnMin= -7517.81467791754     IErMin=15 ErrMin= 3.14D-07
 ErrMax= 3.14D-07  0.00D+00 EMaxC= 1.00D-01 BMatC= 1.25D-10 BMatP= 3.25D-09
 IDIUse=1 WtCom= 1.00D+00 WtEn= 0.00D+00
 Coeff-Com: -0.332D-06 0.367D-05-0.684D-06 0.206D-04 0.628D-04 0.977D-04
 Coeff-Com:  0.791D-04-0.484D-03-0.302D-02-0.382D-02 0.290D-02 0.552D-01
 Coeff-Com:  0.978D-01 0.243D+00 0.608D+00
 Coeff:     -0.332D-06 0.367D-05-0.684D-06 0.206D-04 0.628D-04 0.977D-04
 Coeff:      0.791D-04-0.484D-03-0.302D-02-0.382D-02 0.290D-02 0.552D-01
 Coeff:      0.978D-01 0.243D+00 0.608D+00
 Gap=     0.119 Goal=   None    Shift=    0.000
 RMSDP=2.91D-08 MaxDP=1.91D-06 DE=-4.01D-09 OVMax= 3.04D-06

 Cycle  16  Pass 1  IDiag  1:
 RMSU=  2.06D-08    CP:  1.00D+00  4.92D-01  1.26D-01  6.98D-01  3.60D-01
                    CP:  5.16D-01  4.42D-01  8.16D-01  8.98D-01  6.63D-01
                    CP:  9.34D-01  8.91D-01  4.66D-01  7.29D-01  9.51D-01
 E= -7517.81467791739     Delta-E=        0.000000000153 Rises=F Damp=F
 DIIS: error= 1.06D-07 at cycle  16 NSaved=  16.
 NSaved=16 IEnMin=15 EnMin= -7517.81467791754     IErMin=16 ErrMin= 1.06D-07
 ErrMax= 1.06D-07  0.00D+00 EMaxC= 1.00D-01 BMatC= 1.61D-11 BMatP= 1.25D-10
 IDIUse=1 WtCom= 1.00D+00 WtEn= 0.00D+00
 Coeff-Com: -0.106D-05 0.213D-05-0.923D-07 0.325D-05 0.130D-04 0.426D-04
 Coeff-Com:  0.632D-04 0.331D-04-0.245D-04-0.602D-03-0.249D-02-0.106D-02
 Coeff-Com:  0.106D-01 0.444D-01 0.300D+00 0.649D+00
 Coeff:     -0.106D-05 0.213D-05-0.923D-07 0.325D-05 0.130D-04 0.426D-04
 Coeff:      0.632D-04 0.331D-04-0.245D-04-0.602D-03-0.249D-02-0.106D-02
 Coeff:      0.106D-01 0.444D-01 0.300D+00 0.649D+00
 Gap=     0.119 Goal=   None    Shift=    0.000
 RMSDP=1.57D-08 MaxDP=1.07D-06 DE= 1.53D-10 OVMax= 1.92D-06

 Cycle  17  Pass 1  IDiag  1:
 RMSU=  9.92D-09    CP:  1.00D+00  4.92D-01  1.26D-01  6.98D-01  3.60D-01
                    CP:  5.16D-01  4.42D-01  8.16D-01  8.97D-01  6.63D-01
                    CP:  9.33D-01  8.95D-01  4.70D-01  7.40D-01  1.00D+00
                    CP:  7.96D-01
 E= -7517.81467791770     Delta-E=       -0.000000000311 Rises=F Damp=F
 DIIS: error= 4.09D-08 at cycle  17 NSaved=  17.
 NSaved=17 IEnMin=17 EnMin= -7517.81467791770     IErMin=17 ErrMin= 4.09D-08
 ErrMax= 4.09D-08  0.00D+00 EMaxC= 1.00D-01 BMatC= 1.94D-12 BMatP= 1.61D-11
 IDIUse=1 WtCom= 1.00D+00 WtEn= 0.00D+00
 Coeff-Com: -0.394D-06 0.553D-06-0.994D-07-0.597D-06-0.918D-06 0.941D-05
 Coeff-Com:  0.221D-04 0.870D-04 0.342D-03 0.117D-03-0.186D-02-0.594D-02
 Coeff-Com: -0.424D-02-0.316D-02 0.534D-01 0.295D+00 0.666D+00
 Coeff:     -0.394D-06 0.553D-06-0.994D-07-0.597D-06-0.918D-06 0.941D-05
 Coeff:      0.221D-04 0.870D-04 0.342D-03 0.117D-03-0.186D-02-0.594D-02
 Coeff:     -0.424D-02-0.316D-02 0.534D-01 0.295D+00 0.666D+00
 Gap=     0.119 Goal=   None    Shift=    0.000
 RMSDP=5.70D-09 MaxDP=3.76D-07 DE=-3.11D-10 OVMax= 8.20D-07

 SCF Done:  E(RPBE1PBE) =  -7517.81467792     A.U. after   17 cycles
            NFock= 17  Conv=0.57D-08     -V/T= 2.1285
 KE= 6.661956239451D+03 PE=-2.474261257245D+04 EE= 6.987170151324D+03
 Leave Link  502 at Tue Mar  6 12:13:12 2018, MaxMem=   536870912 cpu:      3562.8
 (Enter /share/apps//mg09/l601.exe)
 Copying SCF densities to generalized density rwf, IOpCl= 0 IROHF=0.

 **********************************************************************

            Population analysis using the SCF density.

 **********************************************************************

 Orbital symmetries:
       Occupied  (A) (A) (A) (A) (A) (A) (A) (A) (A) (A) (A) (A)
                 (A) (A) (A) (A) (A) (A) (A) (A) (A) (A) (A) (A)
                 (A) (A) (A) (A) (A) (A) (A) (A) (A) (A) (A) (A)
                 (A) (A) (A) (A) (A) (A) (A) (A) (A) (A) (A) (A)
                 (A) (A) (A) (A) (A) (A) (A) (A) (A) (A) (A) (A)
                 (A) (A) (A) (A) (A) (A) (A) (A) (A) (A) (A) (A)
                 (A) (A) (A) (A) (A) (A) (A) (A) (A) (A) (A) (A)
                 (A) (A) (A) (A) (A) (A) (A) (A) (A) (A) (A) (A)
                 (A) (A) (A) (A) (A) (A) (A) (A) (A) (A) (A) (A)
                 (A) (A) (A) (A) (A) (A) (A) (A)
       Virtual   (A) (A) (A) (A) (A) (A) (A) (A) (A) (A) (A) (A)
                 (A) (A) (A) (A) (A) (A) (A) (A) (A) (A) (A) (A)
                 (A) (A) (A) (A) (A) (A) (A) (A) (A) (A) (A) (A)
                 (A) (A) (A) (A) (A) (A) (A) (A) (A) (A) (A) (A)
                 (A) (A) (A) (A) (A) (A) (A) (A) (A) (A) (A) (A)
                 (A) (A) (A) (A) (A) (A) (A) (A) (A) (A) (A) (A)
                 (A) (A) (A) (A) (A) (A) (A) (A) (A) (A) (A) (A)
                 (A) (A) (A) (A) (A) (A) (A) (A) (A) (A) (A) (A)
                 (A) (A) (A) (A) (A) (A) (A) (A) (A) (A) (A) (A)
                 (A) (A) (A) (A) (A) (A) (A) (A) (A) (A) (A) (A)
                 (A) (A) (A) (A) (A) (A) (A) (A) (A) (A) (A) (A)
                 (A) (A) (A) (A) (A) (A) (A) (A) (A) (A) (A) (A)
                 (A) (A) (A) (A) (A) (A) (A) (A) (A) (A) (A) (A)
                 (A) (A) (A) (A) (A) (A) (A) (A) (A) (A) (A) (A)
                 (A) (A) (A) (A) (A) (A) (A) (A) (A) (A) (A) (A)
                 (A) (A) (A) (A) (A) (A) (A) (A) (A) (A) (A) (A)
                 (A) (A) (A) (A) (A) (A) (A) (A) (A) (A) (A) (A)
                 (A) (A) (A) (A) (A) (A) (A) (A) (A) (A) (A) (A)
                 (A) (A) (A) (A) (A) (A) (A) (A) (A) (A) (A) (A)
                 (A) (A) (A) (A) (A) (A) (A) (A) (A) (A) (A) (A)
                 (A) (A) (A) (A) (A) (A) (A) (A) (A) (A) (A) (A)
                 (A) (A) (A) (A) (A) (A) (A) (A) (A) (A) (A) (A)
                 (A) (A) (A) (A) (A) (A) (A) (A) (A) (A) (A) (A)
                 (A) (A) (A) (A) (A) (A) (A) (A) (A) (A) (A) (A)
                 (A) (A) (A) (A) (A) (A) (A) (A) (A) (A) (A) (A)
                 (A) (A) (A) (A) (A) (A) (A) (A) (A) (A) (A) (A)
                 (A) (A) (A) (A) (A) (A) (A) (A) (A) (A) (A) (A)
                 (A) (A) (A) (A)
 The electronic state is 1-A.
 Alpha  occ. eigenvalues -- -399.09601-399.09600-399.09429 -49.91155 -49.91154
 Alpha  occ. eigenvalues --  -49.91036 -44.39261 -44.39261 -44.39201 -44.39200
 Alpha  occ. eigenvalues --  -44.39175 -44.39174 -44.39111 -44.39107 -44.39044
 Alpha  occ. eigenvalues --   -6.27658  -6.27657  -6.27554  -6.02808  -6.02807
 Alpha  occ. eigenvalues --   -6.00998  -6.00996  -5.13938  -5.12934  -4.43171
 Alpha  occ. eigenvalues --   -4.43171  -4.42993  -4.42987  -4.42987  -4.42972
 Alpha  occ. eigenvalues --   -4.42877  -4.42875  -4.42763  -3.75068  -3.75060
 Alpha  occ. eigenvalues --   -3.74973  -3.74972  -3.74809  -3.74807  -3.73309
 Alpha  occ. eigenvalues --   -3.73307  -3.73155  -3.73152  -3.72929  -3.72926
 Alpha  occ. eigenvalues --   -3.47192  -3.47074  -3.46886  -3.46178  -3.46064
 Alpha  occ. eigenvalues --   -3.45913  -1.22656  -1.22640  -1.22600  -1.22577
 Alpha  occ. eigenvalues --   -1.22541  -1.22489  -1.22485  -1.22436  -1.22418
 Alpha  occ. eigenvalues --   -1.22387  -1.22370  -1.22259  -1.22236  -1.22158
 Alpha  occ. eigenvalues --   -1.22122  -1.09159  -1.08883  -1.08772  -1.08698
 Alpha  occ. eigenvalues --   -1.08603  -1.08591  -1.08489  -1.08434  -1.08347
 Alpha  occ. eigenvalues --   -1.08226  -1.06936  -1.06933  -1.06881  -1.06864
 Alpha  occ. eigenvalues --   -1.06765  -1.06743  -1.06588  -1.06583  -1.06540
 Alpha  occ. eigenvalues --   -1.06496  -1.03374  -1.03372  -1.03170  -1.03096
 Alpha  occ. eigenvalues --   -1.03038  -1.02355  -1.02348  -1.02275  -1.02134
 Alpha  occ. eigenvalues --   -1.02083  -0.67030  -0.62163  -0.59406  -0.54817
 Alpha  occ. eigenvalues --   -0.54670  -0.45064  -0.43647  -0.43609  -0.40145
 Alpha  occ. eigenvalues --   -0.29124  -0.27276  -0.27183  -0.25679  -0.25549
 Alpha  occ. eigenvalues --   -0.24319  -0.23653  -0.21911  -0.21730  -0.21372
 Alpha  occ. eigenvalues --   -0.19885
 Alpha virt. eigenvalues --   -0.07998  -0.07555  -0.06673  -0.06386  -0.06360
 Alpha virt. eigenvalues --   -0.06027  -0.05397  -0.05362  -0.04271  -0.02991
 Alpha virt. eigenvalues --   -0.02727  -0.02221  -0.01539   0.04072   0.05257
 Alpha virt. eigenvalues --    0.05300   0.06220   0.08151   0.08674   0.08774
 Alpha virt. eigenvalues --    0.09066   0.09458   0.09897   0.10280   0.10418
 Alpha virt. eigenvalues --    0.11408   0.11653   0.11925   0.12264   0.13367
 Alpha virt. eigenvalues --    0.13828   0.16202   0.16711   0.16879   0.17147
 Alpha virt. eigenvalues --    0.18341   0.18827   0.19051   0.19652   0.19732
 Alpha virt. eigenvalues --    0.20789   0.21030   0.22209   0.23184   0.23760
 Alpha virt. eigenvalues --    0.24924   0.24984   0.26637   0.26802   0.28096
 Alpha virt. eigenvalues --    0.28512   0.29439   0.30415   0.30883   0.31204
 Alpha virt. eigenvalues --    0.32161   0.32758   0.33120   0.33460   0.34085
 Alpha virt. eigenvalues --    0.34166   0.35137   0.36212   0.37398   0.38609
 Alpha virt. eigenvalues --    0.38814   0.40346   0.40441   0.41027   0.41518
 Alpha virt. eigenvalues --    0.42005   0.43030   0.43985   0.44466   0.44766
 Alpha virt. eigenvalues --    0.45736   0.46432   0.46857   0.46964   0.47831
 Alpha virt. eigenvalues --    0.47900   0.48954   0.49487   0.50389   0.50820
 Alpha virt. eigenvalues --    0.52094   0.53863   0.54451   0.55630   0.56136
 Alpha virt. eigenvalues --    0.56646   0.57420   0.58399   0.59630   0.59709
 Alpha virt. eigenvalues --    0.60825   0.60929   0.61008   0.61290   0.62782
 Alpha virt. eigenvalues --    0.63132   0.64225   0.64516   0.65663   0.65691
 Alpha virt. eigenvalues --    0.67154   0.67247   0.68214   0.69149   0.69544
 Alpha virt. eigenvalues --    0.70928   0.71957   0.72406   0.72822   0.74342
 Alpha virt. eigenvalues --    0.74407   0.76285   0.77189   0.77644   0.78375
 Alpha virt. eigenvalues --    0.78678   0.79144   0.80212   0.80670   0.82029
 Alpha virt. eigenvalues --    0.82566   0.83161   0.83740   0.84212   0.85851
 Alpha virt. eigenvalues --    0.86550   0.87342   0.88257   0.89523   0.89631
 Alpha virt. eigenvalues --    0.90511   0.90645   0.91487   0.91977   0.92930
 Alpha virt. eigenvalues --    0.93128   0.94071   0.95593   0.95921   0.96921
 Alpha virt. eigenvalues --    0.96930   0.98368   0.98903   1.00673   1.01639
 Alpha virt. eigenvalues --    1.02791   1.03141   1.03890   1.05321   1.07255
 Alpha virt. eigenvalues --    1.08597   1.10040   1.10321   1.10966   1.10981
 Alpha virt. eigenvalues --    1.13509   1.13670   1.15293   1.17614   1.17770
 Alpha virt. eigenvalues --    1.18842   1.19164   1.19527   1.19733   1.19979
 Alpha virt. eigenvalues --    1.20897   1.21359   1.22311   1.22429   1.22661
 Alpha virt. eigenvalues --    1.23703   1.23735   1.24353   1.24865   1.25159
 Alpha virt. eigenvalues --    1.25856   1.26447   1.26773   1.27125   1.27482
 Alpha virt. eigenvalues --    1.28450   1.28647   1.28886   1.29302   1.29836
 Alpha virt. eigenvalues --    1.30271   1.31005   1.31479   1.32560   1.33013
 Alpha virt. eigenvalues --    1.35590   1.36199   1.38028   1.38119   1.38584
 Alpha virt. eigenvalues --    1.39016   1.39871   1.41459   1.41538   1.42593
 Alpha virt. eigenvalues --    1.45801   1.46024   1.46195   1.47989   1.48002
 Alpha virt. eigenvalues --    1.50045   1.50116   1.51223   1.52655   1.53391
 Alpha virt. eigenvalues --    1.55800   1.55945   1.56844   1.57482   1.60154
 Alpha virt. eigenvalues --    1.65357   1.66444   1.69866   2.02980   2.05737
 Alpha virt. eigenvalues --    2.07920   2.11191   2.12362   2.13216   2.14064
 Alpha virt. eigenvalues --    2.15883   2.18133   2.18545   2.18966   2.21387
 Alpha virt. eigenvalues --    2.21717   2.22766   2.23390   2.24781   2.25881
 Alpha virt. eigenvalues --    2.26196   2.28278   2.29320   2.30757   2.31145
 Alpha virt. eigenvalues --    2.32034   2.32395   2.38389   2.38396   2.39149
 Alpha virt. eigenvalues --    2.40841   2.41755   2.42022   2.44537   2.46163
 Alpha virt. eigenvalues --    2.49221   2.51596   2.51772   2.56291   2.56801
 Alpha virt. eigenvalues --    2.59706   2.60152   2.62550   2.63995   2.66050
 Alpha virt. eigenvalues --    2.68309   2.68744   2.69432   2.72070   2.72507
 Alpha virt. eigenvalues --    2.75681   2.75961   2.79056   2.82259   2.84971
 Alpha virt. eigenvalues --    2.85941   2.89000   2.89709   2.92375   3.01174
 Alpha virt. eigenvalues --    3.16202   3.26705   3.33708   3.35342   3.38547
 Alpha virt. eigenvalues --    3.43481   3.94037   3.98470   4.00744   4.00808
 Alpha virt. eigenvalues --    4.02502   4.03878   4.05192   4.15750   4.18645
 Alpha virt. eigenvalues --    5.24012   5.34103   5.42078  35.39182  35.39964
 Alpha virt. eigenvalues --   35.43223  35.43415  35.44649  35.46809  35.49230
 Alpha virt. eigenvalues --   35.52057  35.52069  35.56424  35.56814  35.63585
 Alpha virt. eigenvalues --   35.89356  35.95051  35.98960  36.09293  36.15749
 Alpha virt. eigenvalues --   36.22392  36.89112  36.93851  37.00619  37.04289
 Alpha virt. eigenvalues --   37.04898  37.12539 113.55665 113.59274 120.21988
 Alpha virt. eigenvalues --  120.23603 120.25105 120.25764
          Condensed to atoms (all electrons):
               1          2          3          4          5          6
     1  Sn  21.457718  -0.012960   0.176635   0.176672   0.119089  -0.015385
     2  Ge  -0.012960  31.600577  -0.016942  -0.016949   0.158020   0.152612
     3  Bi   0.176635  -0.016942  22.434617  -0.021319  -0.025953  -0.018608
     4  Bi   0.176672  -0.016949  -0.021319  22.434629   0.184915   0.129233
     5  Bi   0.119089   0.158020  -0.025953   0.184915  22.278302   0.061163
     6  Ge  -0.015385   0.152612  -0.018608   0.129233   0.061163  31.514629
     7  Sn  -0.004048  -0.019611   0.174068   0.174115  -0.017252   0.154326
     8  Ge  -0.015389   0.152448   0.129235  -0.018610  -0.030833   0.113686
     9  Bi   0.118977   0.157972   0.184954  -0.025956   0.141526  -0.030841
               7          8          9
     1  Sn  -0.004048  -0.015389   0.118977
     2  Ge  -0.019611   0.152448   0.157972
     3  Bi   0.174068   0.129235   0.184954
     4  Bi   0.174115  -0.018610  -0.025956
     5  Bi  -0.017252  -0.030833   0.141526
     6  Ge   0.154326   0.113686  -0.030841
     7  Sn  21.352007   0.154225  -0.017261
     8  Ge   0.154225  31.514753   0.061314
     9  Bi  -0.017261   0.061314  22.278230
 Mulliken charges:
               1
     1  Sn  -0.001311
     2  Ge  -0.155168
     3  Bi  -0.016687
     4  Bi  -0.016730
     5  Bi   0.131023
     6  Ge  -0.060815
     7  Sn   0.049432
     8  Ge  -0.060829
     9  Bi   0.131085
 Sum of Mulliken charges =   0.00000
 Mulliken charges with hydrogens summed into heavy atoms:
               1
     1  Sn  -0.001311
     2  Ge  -0.155168
     3  Bi  -0.016687
     4  Bi  -0.016730
     5  Bi   0.131023
     6  Ge  -0.060815
     7  Sn   0.049432
     8  Ge  -0.060829
     9  Bi   0.131085
 Electronic spatial extent (au):  <R**2>=           6111.6873
 Charge=              0.0000 electrons
 Dipole moment (field-independent basis, Debye):
    X=             -0.0007    Y=             -0.6196    Z=             -1.8797  Tot=              1.9792
 Quadrupole moment (field-independent basis, Debye-Ang):
   XX=           -217.2703   YY=           -215.1048   ZZ=           -222.8136
   XY=             -0.0019   XZ=              0.0019   YZ=             -0.8249
 Traceless Quadrupole moment (field-independent basis, Debye-Ang):
   XX=              1.1259   YY=              3.2914   ZZ=             -4.4173
   XY=             -0.0019   XZ=              0.0019   YZ=             -0.8249
 Octapole moment (field-independent basis, Debye-Ang**2):
  XXX=             -0.0037  YYY=            -42.1865  ZZZ=           -100.3036  XYY=             -0.0014
  XXY=            -17.3565  XXZ=            -39.9213  XZZ=             -0.0013  YZZ=             -5.3800
  YYZ=            -37.7315  XYZ=              0.0005
 Hexadecapole moment (field-independent basis, Debye-Ang**3):
 XXXX=          -3341.8283 YYYY=          -3334.7602 ZZZZ=          -3018.1826 XXXY=             -0.0110
 XXXZ=              0.0050 YYYX=              0.0409 YYYZ=             -9.8383 ZZZX=              0.0106
 ZZZY=            -33.3537 XXYY=          -1065.6710 XXZZ=          -1068.6827 YYZZ=          -1077.1777
 XXYZ=            -13.8879 YYXZ=              0.0006 ZZXY=             -0.0083
 N-N= 3.575671503759D+03 E-N=-2.474261254554D+04  KE= 6.661956239451D+03
 No NMR shielding tensors so no spin-rotation constants.
 Leave Link  601 at Tue Mar  6 12:13:13 2018, MaxMem=   536870912 cpu:         2.6
 (Enter /share/apps//mg09/l701.exe)
 Compute integral first derivatives.
 ... and contract with generalized density number  0.
   1 Symmetry operations used in ECPInt.
 ECPInt:  NShTT=   10440 NPrTT=   41973 LenC2=    9686 LenP2D=   27445.
 LDataN:  DoStor=T MaxTD1= 9 Len=  602
 Leave Link  701 at Tue Mar  6 12:13:39 2018, MaxMem=   536870912 cpu:        93.4
 (Enter /share/apps//mg09/l702.exe)
 L702 exits ... SP integral derivatives will be done elsewhere.
 Leave Link  702 at Tue Mar  6 12:13:40 2018, MaxMem=   536870912 cpu:         0.1
 (Enter /share/apps//mg09/l703.exe)
 Compute integral first derivatives, UseDBF=F ICtDFT=           0.
 Integral derivatives from FoFJK, PRISM(SPDF).
 Calling FoFJK, ICntrl=      2127 FMM=F ISym2X=0 I1Cent= 0 IOpClX= 0 NMat=1 NMatS=1 NMatT=0.
 FoFJK:  IHMeth= 1 ICntrl=    2127 DoSepK=F KAlg= 0 I1Cent=   0 FoldK=F
 IRaf=         0 NMat=   1 IRICut=       1 DoRegI=T DoRafI=F ISym2E= 0.
 FoFCou: FMM=F IPFlag=           0 FMFlag=      100000 FMFlg1=         800
         NFxFlg=           0 DoJE=F BraDBF=F KetDBF=F FulRan=T
         wScrn=  0.000000 ICntrl=    2127 IOpCl=  0 I1Cent=           0 NGrid=           0
         NMat0=    1 NMatS0=      1 NMatT0=    0 NMatD0=    1 NMtDS0=    0 NMtDT0=    0
 Symmetry not used in FoFCou.
 Defaulting to unpruned grid for atomic number  50.
 Defaulting to unpruned grid for atomic number  50.
 Defaulting to unpruned grid for atomic number  50.
 Defaulting to unpruned grid for atomic number  50.
 Leave Link  703 at Tue Mar  6 12:17:51 2018, MaxMem=   536870912 cpu:       890.2
 (Enter /share/apps//mg09/l716.exe)
 Dipole        =-2.64445773D-04-2.43758187D-01-7.39540307D-01
 ***** Axes restored to original set *****
 -------------------------------------------------------------------
 Center     Atomic                   Forces (Hartrees/Bohr)
 Number     Number              X              Y              Z
 -------------------------------------------------------------------
      1       50          -0.000002578   -0.000163805    0.009865144
      2       32          -0.000008437    0.013660733   -0.008311008
      3       83           0.006470837   -0.003336965    0.003453223
      4       83          -0.006452205   -0.003357411    0.003446120
      5       83          -0.005535690    0.006128007    0.003364909
      6       32          -0.013888327   -0.002562725   -0.008428686
      7       50          -0.000008353   -0.013915896    0.001657144
      8       32           0.013889020   -0.002566562   -0.008398189
      9       83           0.005535733    0.006114622    0.003351343
 -------------------------------------------------------------------
 Cartesian Forces:  Max     0.013915896 RMS     0.007145178
 Force constants in Cartesian coordinates: 
                1             2             3             4             5 
      1  0.110233D+00
      2 -0.539177D-05  0.850947D-01
      3  0.718519D-05 -0.286485D-02  0.159920D+00
      4  0.850001D-02  0.000000D+00 -0.228932D-05  0.136943D+00
      5  0.000000D+00  0.258157D-02  0.670085D-02 -0.807010D-05  0.171714D+00
      6 -0.174430D-05 -0.737554D-03 -0.433512D-02  0.251378D-04 -0.345806D-01
      7 -0.394068D-01  0.156649D-01 -0.397536D-02  0.152058D-02  0.510948D-02
      8  0.947453D-02 -0.201170D-01  0.307425D-02  0.875884D-03  0.251773D-02
      9  0.248519D-01 -0.178272D-01 -0.363982D-01 -0.728174D-03  0.680670D-02
     10 -0.394027D-01 -0.156695D-01  0.396815D-02  0.152236D-02 -0.510788D-02
     11 -0.948148D-02 -0.201252D-01  0.307021D-02 -0.879038D-03  0.251278D-02
     12 -0.248493D-01 -0.178413D-01 -0.364071D-01  0.727776D-03  0.680767D-02
     13 -0.273157D-01  0.152564D-01  0.667917D-02 -0.401194D-01  0.156878D-01
     14  0.150587D-01 -0.272500D-01 -0.330487D-02 -0.664022D-02 -0.313217D-01
     15 -0.181154D-01  0.242858D-01 -0.340820D-01  0.372955D-01 -0.115362D-01
     16  0.374124D-02 -0.475411D-03 -0.764429D-02 -0.395873D-01 -0.683572D-02
     17  0.118701D-02  0.496321D-02 -0.100572D-03 -0.324973D-01 -0.558335D-01
     18  0.151706D-02 -0.222276D-02 -0.502500D-02  0.474977D-02  0.192910D-01
     19  0.720239D-02  0.128283D-05  0.000000D+00  0.109469D-01  0.477769D-05
     20  0.199432D-05 -0.287187D-02 -0.316620D-02  0.347428D-05 -0.507030D-02
     21  0.193758D-05 -0.484426D-02 -0.458334D-02  0.302806D-05 -0.122936D-02
     22  0.374078D-02  0.475950D-03  0.764565D-02 -0.395942D-01  0.684339D-02
     23 -0.118681D-02  0.496376D-02 -0.987513D-04  0.324983D-01 -0.557762D-01
     24 -0.151601D-02 -0.222443D-02 -0.502539D-02 -0.476994D-02  0.192827D-01
     25 -0.272923D-01 -0.152479D-01 -0.667893D-02 -0.401325D-01 -0.156938D-01
     26 -0.150486D-01 -0.272392D-01 -0.331006D-02  0.664748D-02 -0.313248D-01
     27  0.181043D-01  0.242766D-01 -0.340637D-01 -0.373008D-01 -0.115427D-01
                6             7             8             9            10 
      6  0.188031D+00
      7 -0.492120D-02  0.143295D+00
      8  0.720667D-02 -0.273806D-01  0.130244D+00
      9  0.383496D-02  0.264677D-01 -0.630872D-02  0.133763D+00
     10  0.491622D-02 -0.745456D-02  0.407302D-03 -0.307802D-03  0.143293D+00
     11  0.720973D-02 -0.410814D-03  0.326729D-02  0.351495D-02  0.273755D-01
     12  0.383449D-02  0.305298D-03  0.351511D-02  0.480395D-02 -0.264625D-01
     13  0.162082D-01 -0.174434D-02  0.250456D-02 -0.367025D-02 -0.268411D-01
     14  0.213196D-01  0.869212D-02  0.709517D-03  0.181487D-02  0.135717D-01
     15 -0.616663D-01  0.106382D-02 -0.252163D-02  0.460288D-02  0.638692D-02
     16 -0.160685D-01 -0.172425D-02  0.443784D-02 -0.196409D-02 -0.281426D-01
     17 -0.140543D-01  0.920451D-04  0.523912D-02 -0.209563D-02 -0.583618D-02
     18 -0.358424D-01 -0.963097D-02  0.275175D-02  0.121395D-02 -0.129275D-01
     19  0.105404D-05 -0.394773D-01 -0.237826D-01 -0.134066D-01 -0.395050D-01
     20  0.636201D-02  0.596225D-02 -0.336590D-01  0.131418D-02 -0.595599D-02
     21  0.361669D-02 -0.158517D-01 -0.213034D-01 -0.234383D-01  0.158628D-01
     22  0.160711D-01 -0.281589D-01  0.109222D-01 -0.232970D-01 -0.172715D-02
     23 -0.140369D-01  0.583274D-02 -0.246251D-01  0.171336D-01 -0.920350D-04
     24 -0.358284D-01  0.129279D-01  0.139214D-02 -0.665610D-01  0.962977D-02
     25 -0.162302D-01 -0.268493D-01  0.225409D-01 -0.794564D-02 -0.174238D-02
     26  0.213113D-01 -0.135621D-01 -0.635762D-01 -0.435269D-02 -0.869291D-02
     27 -0.616454D-01 -0.638544D-02  0.121938D-01 -0.218216D-01 -0.106601D-02
               11            12            13            14            15 
     11  0.130261D+00
     12 -0.628194D-02  0.133749D+00
     13 -0.225298D-01  0.794266D-02  0.171922D+00
     14 -0.635636D-01 -0.436044D-02 -0.364794D-01  0.184508D+00
     15  0.121780D-01 -0.218204D-01 -0.289315D-01  0.525108D-02  0.155713D+00
     16 -0.109212D-01  0.232904D-01 -0.234916D-01  0.161499D-01  0.661671D-02
     17 -0.246257D-01  0.171267D-01 -0.471120D-02 -0.312963D-01 -0.227177D-01
     18  0.137831D-02 -0.665304D-01 -0.168767D-01 -0.710192D-02 -0.339610D-01
     19  0.237911D-01  0.134137D-01  0.330487D-02 -0.945024D-03 -0.129826D-02
     20 -0.336688D-01  0.130929D-02  0.770311D-02 -0.427392D-02 -0.135224D-02
     21 -0.213052D-01 -0.234458D-01  0.175156D-02 -0.364386D-02  0.545524D-02
     22 -0.444016D-02  0.196301D-02 -0.128630D-02  0.853778D-02  0.468320D-02
     23  0.523660D-02 -0.209419D-02  0.462850D-02  0.245194D-02 -0.684102D-03
     24  0.275686D-02  0.121531D-02  0.918318D-02 -0.707900D-02  0.214168D-02
     25 -0.250416D-02  0.366898D-02 -0.544284D-01 -0.179455D-01 -0.770093D-02
     26  0.706126D-03  0.181905D-02  0.179400D-01 -0.299639D-01 -0.290295D-02
     27 -0.252095D-02  0.460120D-02  0.771375D-02 -0.289550D-02 -0.163828D-01
               16            17            18            19            20 
     16  0.183281D+00
     17  0.162042D-01  0.166705D+00
     18  0.369237D-01 -0.693289D-03  0.207470D+00
     19 -0.349685D-01  0.243962D-01 -0.141242D-01  0.124152D+00
     20 -0.420337D-02 -0.460734D-01 -0.404583D-02 -0.176153D-04  0.175963D+00
     21 -0.169178D-01  0.255042D-01 -0.316248D-01  0.000000D+00  0.497138D-02
     22 -0.578270D-01  0.579773D-02  0.195480D-01 -0.349618D-01  0.420719D-02
     23 -0.581557D-02 -0.215283D-01 -0.227509D-02 -0.243966D-01 -0.460686D-01
     24 -0.195541D-01 -0.228247D-02 -0.378407D-01  0.141171D-01 -0.404070D-02
     25 -0.128114D-02 -0.463247D-02 -0.917914D-02  0.330654D-02 -0.770104D-02
     26 -0.854066D-02  0.245000D-02 -0.708219D-02  0.948516D-03 -0.427673D-02
     27 -0.468208D-02 -0.686929D-03  0.213996D-02  0.129698D-02 -0.135189D-02
               21            22            23            24            25 
     21  0.100172D+00
     22  0.169023D-01  0.183329D+00
     23  0.254946D-01 -0.161917D-01  0.166697D+00
     24 -0.316095D-01 -0.368998D-01 -0.690183D-03  0.207516D+00
     25 -0.175164D-02 -0.235146D-01  0.472324D-02  0.168819D-01  0.171934D+00
     26 -0.364413D-02 -0.161524D-01 -0.313514D-01 -0.711493D-02  0.364606D-01
     27  0.545739D-02 -0.661637D-02 -0.227490D-01 -0.340084D-01  0.289357D-01
               26            27 
     26  0.184576D+00
     27  0.527659D-02  0.155723D+00
 Leave Link  716 at Tue Mar  6 12:17:51 2018, MaxMem=   536870912 cpu:         0.1
 (Enter /share/apps//mg09/l103.exe)

 GradGradGradGradGradGradGradGradGradGradGradGradGradGradGradGradGradGrad
 Berny optimization.
 Search for a local minimum.
 Step number   1 out of a maximum of  100
 All quantities printed in internal units (Hartrees-Bohrs-Radians)
 Second derivative matrix not updated -- first step.
 ITU=  0
     Eigenvalues ---    0.07628   0.11978   0.12333   0.12798   0.13118
     Eigenvalues ---    0.13480   0.15194   0.15335   0.16234   0.16399
     Eigenvalues ---    0.18742   0.21332   0.22072   0.23790   0.24563
     Eigenvalues ---    0.25733   0.26448   0.29225   0.30092   0.31076
     Eigenvalues ---    0.31674
 RFO step:  Lambda=-8.03603920D-03 EMin= 7.62754070D-02
 Linear search not attempted -- first point.
 TrRot= -0.000046  0.001132 -0.002774  0.805711  0.000089 -0.805712
 MatCor failed.
 Variable       Old X    -DE/DX   Delta X   Delta X   Delta X     New X
                                 (Linear)    (Quad)   (Total)
    X1        0.00036   0.00000   0.00000  -0.00001  -0.00033   0.00003
    Y1       -0.06002  -0.00016   0.00000   0.00152   0.00237  -0.05766
    Z1       -4.53845   0.00987   0.00000   0.06979   0.06702  -4.47143
    X2        0.00127  -0.00001   0.00000  -0.00004   0.00016   0.00143
    Y2       -3.54465   0.01366   0.00000   0.07704   0.07844  -3.46621
    Z2        4.19065  -0.00831   0.00000  -0.04215  -0.04470   4.14594
    X3       -4.13553   0.00647   0.00000   0.05344   0.05333  -4.08220
    Y3        2.19251  -0.00334   0.00000  -0.02590  -0.02484   2.16767
    Z3       -1.15715   0.00345   0.00000   0.02477   0.02211  -1.13505
    X4        4.13471  -0.00645   0.00000  -0.05335  -0.05346   4.08125
    Y4        2.19387  -0.00336   0.00000  -0.02604  -0.02499   2.16888
    Z4       -1.15659   0.00345   0.00000   0.02470   0.02153  -1.13505
    X5        2.96381  -0.00554   0.00000  -0.03623  -0.03630   2.92752
    Y5       -3.32471   0.00613   0.00000   0.04147   0.04258  -3.28214
    Z5       -0.40059   0.00336   0.00000   0.01613   0.01339  -0.38720
    X6        2.70548  -0.01389   0.00000  -0.06488  -0.06467   2.64081
    Y6        0.85185  -0.00256   0.00000  -0.01444  -0.01305   0.83880
    Z6        4.12051  -0.00843   0.00000  -0.04415  -0.04714   4.07337
    X7       -0.00059  -0.00001   0.00000  -0.00005   0.00001  -0.00058
    Y7        4.99650  -0.01392   0.00000  -0.09121  -0.08996   4.90654
    Z7        1.75188   0.00166   0.00000   0.00389   0.00080   1.75268
    X8       -2.70637   0.01389   0.00000   0.06488   0.06508  -2.64128
    Y8        0.85051  -0.00257   0.00000  -0.01448  -0.01309   0.83742
    Z8        4.11936  -0.00840   0.00000  -0.04401  -0.04668   4.07268
    X9       -2.96300   0.00554   0.00000   0.03624   0.03617  -2.92683
    Y9       -3.32517   0.00611   0.00000   0.04144   0.04255  -3.28262
    Z9       -0.39950   0.00335   0.00000   0.01605   0.01366  -0.38584
         Item               Value     Threshold  Converged?
 Maximum Force            0.013916     0.000450     NO 
 RMS     Force            0.007145     0.000300     NO 
 Maximum Displacement     0.089961     0.001800     NO 
 RMS     Displacement     0.042345     0.001200     NO 
 Predicted change in Energy=-4.212791D-03
 Lowest energy point so far.  Saving SCF results.
 GradGradGradGradGradGradGradGradGradGradGradGradGradGradGradGradGradGrad

 Leave Link  103 at Tue Mar  6 12:17:51 2018, MaxMem=   536870912 cpu:         0.2
 (Enter /share/apps//mg09/l202.exe)
                          Input orientation:                          
 ---------------------------------------------------------------------
 Center     Atomic      Atomic             Coordinates (Angstroms)
 Number     Number       Type             X           Y           Z
 ---------------------------------------------------------------------
      1         50           0        0.000015   -0.030510   -2.366176
      2         32           0        0.000759   -1.834242    2.193937
      3         83           0       -2.160208    1.147083   -0.600642
      4         83           0        2.159703    1.147722   -0.600645
      5         83           0        1.549174   -1.736831   -0.204897
      6         32           0        1.397455    0.443872    2.155537
      7         50           0       -0.000306    2.596430    0.927480
      8         32           0       -1.397708    0.443143    2.155171
      9         83           0       -1.548810   -1.737088   -0.204177
 ---------------------------------------------------------------------
                    Distance matrix (angstroms):
                    1          2          3          4          5
     1  Sn   0.000000
     2  Ge   4.903885   0.000000
     3  Bi   3.028267   4.622526   0.000000
     4  Bi   3.028132   4.621995   4.319911   0.000000
     5  Bi   3.159518   2.856831   4.715198   2.974896   0.000000
     6  Ge   4.756445   2.672458   4.554996   2.944990   3.217162
     7  Sn   4.212954   4.608119   3.016776   3.016548   4.739232
     8  Ge   4.756107   2.672769   2.944731   4.554791   4.359624
     9  Bi   3.159986   2.856844   2.974800   4.715123   3.097985
                    6          7          8          9
     6  Ge   0.000000
     7  Sn   2.845235   0.000000
     8  Ge   2.795162   2.845452   0.000000
     9  Bi   4.359508   4.738975   3.216017   0.000000
 Stoichiometry    Bi4Ge3Sn2
 Framework group  C1[X(Bi4Ge3Sn2)]
 Deg. of freedom    21
 Full point group                 C1      NOp   1
 RotChk:  IX=0 Diff= 4.18D-03
 Largest Abelian subgroup         C1      NOp   1
 Largest concise Abelian subgroup C1      NOp   1
                         Standard orientation:                         
 ---------------------------------------------------------------------
 Center     Atomic      Atomic             Coordinates (Angstroms)
 Number     Number       Type             X           Y           Z
 ---------------------------------------------------------------------
      1         50           0        0.000233   -0.037736   -2.370912
      2         32           0        0.000725   -1.827993    2.194508
      3         83           0       -2.160219    1.144915   -0.609042
      4         83           0        2.159692    1.145857   -0.608689
      5         83           0        1.549332   -1.737558   -0.204475
      6         32           0        1.397264    0.450095    2.149496
      7         50           0       -0.000546    2.598919    0.914972
      8         32           0       -1.397898    0.449169    2.148901
      9         83           0       -1.548652   -1.738030   -0.204011
 ---------------------------------------------------------------------
 Rotational constants (GHZ):      0.1040783      0.0969369      0.0825052
 Leave Link  202 at Tue Mar  6 12:17:52 2018, MaxMem=   536870912 cpu:         0.0
 (Enter /share/apps//mg09/l301.exe)
 Standard basis: def2TZVP (5D, 7F)
 Ernie: Thresh=  0.10000D-02 Tol=  0.10000D-05 Strict=F.
 There are   519 symmetry adapted cartesian basis functions of A   symmetry.
 There are   444 symmetry adapted basis functions of A   symmetry.
   444 basis functions,   963 primitive gaussians,   519 cartesian basis functions
   116 alpha electrons      116 beta electrons
       nuclear repulsion energy      3631.9907981072 Hartrees.
 IExCor= 1009 DFT=T Ex+Corr=PBE1PBE ExCW=0 ScaHFX=  0.250000
 ScaDFX=  0.750000  0.750000  1.000000  1.000000 ScalE2=  1.000000  1.000000
 IRadAn=      0 IRanWt=     -1 IRanGd=            0 ICorTp=0 IEmpDi=  4
 NAtoms=    9 NActive=    9 NUniq=    9 SFac= 1.00D+00 NAtFMM=   60 NAOKFM=F Big=F
 Integral buffers will be    131072 words long.
 Raffenetti 2 integral format.
 Two-electron integral symmetry is turned on.
 Leave Link  301 at Tue Mar  6 12:17:52 2018, MaxMem=   536870912 cpu:         0.4
 (Enter /share/apps//mg09/l302.exe)
 NPDir=0 NMtPBC=     1 NCelOv=     1 NCel=       1 NClECP=     1 NCelD=      1
         NCelK=      1 NCelE2=     1 NClLst=     1 CellRange=     0.0.
 One-electron integrals computed using PRISM.
   1 Symmetry operations used in ECPInt.
 ECPInt:  NShTT=   10440 NPrTT=   41973 LenC2=    9722 LenP2D=   27618.
 LDataN:  DoStor=T MaxTD1= 8 Len=  415
 NBasis=   444 RedAO= T EigKep=  1.18D-03  NBF=   444
 NBsUse=   444 1.00D-06 EigRej= -1.00D+00 NBFU=   444
 Precomputing XC quadrature grid using
 IXCGrd= 4 IRadAn=           0 IRanWt=          -1 IRanGd=           0 AccXCQ= 0.00D+00.
 Defaulting to unpruned grid for atomic number  50.
 Defaulting to unpruned grid for atomic number  83.
 Defaulting to unpruned grid for atomic number  50.
 Generated NRdTot=       0 NPtTot=           0 NUsed=           0 NTot=          32
 NSgBfM=   501   504   504   504   504 MxSgAt=     9 MxSgA2=     9.
 Leave Link  302 at Tue Mar  6 12:18:01 2018, MaxMem=   536870912 cpu:        34.4
 (Enter /share/apps//mg09/l303.exe)
 DipDrv:  MaxL=1.
 Leave Link  303 at Tue Mar  6 12:18:02 2018, MaxMem=   536870912 cpu:         0.7
 (Enter /share/apps//mg09/l401.exe)
 Initial guess from the checkpoint file:  "Isomer_24.chk"
 B after Tr=     0.000000    0.000000    0.000000
         Rot=    0.999999    0.001314    0.000011   -0.000034 Ang=   0.15 deg.
 Guess basis will be translated and rotated to current coordinates.
 JPrj=2 DoOrth=T DoCkMO=T.
 Generating alternative initial guess.
 ExpMin= 4.62D-02 ExpMax= 4.66D+05 ExpMxC= 4.50D+03 IAcc=2 IRadAn=         4 AccDes= 0.00D+00
 Harris functional with IExCor= 1009 and IRadAn=       4 diagonalized for initial guess.
 HarFok:  IExCor= 1009 AccDes= 0.00D+00 IRadAn=         4 IDoV= 1 UseB2=F ITyADJ=14
 ICtDFT=  3500011 ScaDFX=  1.000000  1.000000  1.000000  1.000000
 Defaulting to unpruned grid for atomic number  50.
 Defaulting to unpruned grid for atomic number  50.
 Defaulting to unpruned grid for atomic number  50.
 Defaulting to unpruned grid for atomic number  50.
 FoFCou: FMM=F IPFlag=           0 FMFlag=      100000 FMFlg1=           0
         NFxFlg=           0 DoJE=T BraDBF=F KetDBF=T FulRan=T
         wScrn=  0.000000 ICntrl=     500 IOpCl=  0 I1Cent=   200000004 NGrid=           0
         NMat0=    1 NMatS0=      1 NMatT0=    0 NMatD0=    1 NMtDS0=    0 NMtDT0=    0
 Petite list used in FoFCou.
 Harris En= -7518.62919721709    
 Leave Link  401 at Tue Mar  6 12:18:06 2018, MaxMem=   536870912 cpu:        15.8
 (Enter /share/apps//mg09/l502.exe)
 Closed shell SCF:
 Using DIIS extrapolation, IDIIS=  1040.
 Integral symmetry usage will be decided dynamically.
 IVT=     1410107 IEndB=     1410107 NGot=   536870912 MDV=   536322046
 LenX=   536322046 LenY=   536052166
 Requested convergence on RMS density matrix=1.00D-08 within 768 cycles.
 Requested convergence on MAX density matrix=1.00D-06.
 Requested convergence on             energy=1.00D-06.
 No special actions if energy rises.
 Fock matrices will be formed incrementally for  20 cycles.

 Cycle   1  Pass 1  IDiag  1:
 FoFJK:  IHMeth= 1 ICntrl=       0 DoSepK=F KAlg= 0 I1Cent=   0 FoldK=F
 IRaf= 880000000 NMat=   1 IRICut=       1 DoRegI=T DoRafI=F ISym2E= 0.
 FoFCou: FMM=F IPFlag=           0 FMFlag=      100000 FMFlg1=           0
         NFxFlg=           0 DoJE=F BraDBF=F KetDBF=F FulRan=T
         wScrn=  0.000000 ICntrl=       0 IOpCl=  0 I1Cent=           0 NGrid=           0
         NMat0=    1 NMatS0=      1 NMatT0=    0 NMatD0=    1 NMtDS0=    0 NMtDT0=    0
 Symmetry not used in FoFCou.
 Defaulting to unpruned grid for atomic number  50.
 Defaulting to unpruned grid for atomic number  50.
 Defaulting to unpruned grid for atomic number  50.
 Defaulting to unpruned grid for atomic number  50.
 E= -7517.81911069369    
 DIIS: error= 5.57D-03 at cycle   1 NSaved=   1.
 NSaved= 1 IEnMin= 1 EnMin= -7517.81911069369     IErMin= 1 ErrMin= 5.57D-03
 ErrMax= 5.57D-03  0.00D+00 EMaxC= 1.00D-01 BMatC= 7.54D-03 BMatP= 7.54D-03
 IDIUse=3 WtCom= 9.44D-01 WtEn= 5.57D-02
 Coeff-Com:  0.100D+01
 Coeff-En:   0.100D+01
 Coeff:      0.100D+01
 Gap=     7.794 Goal=   None    Shift=    0.000
 GapD=    7.794 DampG=2.000 DampE=1.000 DampFc=2.0000 IDamp=-1.
 RMSDP=1.76D-04 MaxDP=3.57D-03              OVMax= 2.33D-02

 Cycle   2  Pass 1  IDiag  1:
 RMSU=  1.76D-04    CP:  1.00D+00
 E= -7517.81908917892     Delta-E=        0.000021514770 Rises=F Damp=F
 DIIS: error= 1.86D-03 at cycle   2 NSaved=   2.
 NSaved= 2 IEnMin= 1 EnMin= -7517.81911069369     IErMin= 2 ErrMin= 1.86D-03
 ErrMax= 1.86D-03  0.00D+00 EMaxC= 1.00D-01 BMatC= 1.59D-03 BMatP= 7.54D-03
 IDIUse=3 WtCom= 9.81D-01 WtEn= 1.86D-02
 Coeff-Com:  0.213D+00 0.787D+00
 Coeff-En:   0.506D+00 0.494D+00
 Coeff:      0.219D+00 0.781D+00
 Gap=     0.121 Goal=   None    Shift=    0.000
 RMSDP=2.17D-04 MaxDP=8.89D-03 DE= 2.15D-05 OVMax= 2.13D-02

 Cycle   3  Pass 1  IDiag  1:
 RMSU=  2.00D-04    CP:  9.99D-01  5.40D-01
 E= -7517.81668205949     Delta-E=        0.002407119431 Rises=F Damp=F
 DIIS: error= 2.63D-03 at cycle   3 NSaved=   3.
 NSaved= 3 IEnMin= 1 EnMin= -7517.81911069369     IErMin= 2 ErrMin= 1.86D-03
 ErrMax= 2.63D-03  0.00D+00 EMaxC= 1.00D-01 BMatC= 4.01D-03 BMatP= 1.59D-03
 IDIUse=3 WtCom= 1.63D-01 WtEn= 8.37D-01
 Coeff-Com:  0.124D-01 0.611D+00 0.377D+00
 Coeff-En:   0.000D+00 0.682D+00 0.318D+00
 Coeff:      0.202D-02 0.670D+00 0.328D+00
 Gap=     0.122 Goal=   None    Shift=    0.000
 RMSDP=1.29D-04 MaxDP=4.60D-03 DE= 2.41D-03 OVMax= 1.73D-02

 Cycle   4  Pass 1  IDiag  1:
 RMSU=  5.57D-05    CP:  9.99D-01  8.10D-01  4.68D-01
 E= -7517.82012948412     Delta-E=       -0.003447424628 Rises=F Damp=F
 DIIS: error= 6.63D-04 at cycle   4 NSaved=   4.
 NSaved= 4 IEnMin= 4 EnMin= -7517.82012948412     IErMin= 4 ErrMin= 6.63D-04
 ErrMax= 6.63D-04  0.00D+00 EMaxC= 1.00D-01 BMatC= 3.40D-04 BMatP= 1.59D-03
 IDIUse=3 WtCom= 9.93D-01 WtEn= 6.63D-03
 Coeff-Com:  0.306D-03 0.452D+00 0.234D+00 0.314D+00
 Coeff-En:   0.000D+00 0.149D+00 0.000D+00 0.851D+00
 Coeff:      0.304D-03 0.450D+00 0.233D+00 0.317D+00
 Gap=     0.122 Goal=   None    Shift=    0.000
 RMSDP=4.54D-05 MaxDP=2.75D-03 DE=-3.45D-03 OVMax= 4.61D-03

 Cycle   5  Pass 1  IDiag  1:
 RMSU=  1.39D-05    CP:  9.99D-01  8.69D-01  4.27D-01  2.69D-01
 E= -7517.82041666093     Delta-E=       -0.000287176816 Rises=F Damp=F
 DIIS: error= 1.02D-04 at cycle   5 NSaved=   5.
 NSaved= 5 IEnMin= 5 EnMin= -7517.82041666093     IErMin= 5 ErrMin= 1.02D-04
 ErrMax= 1.02D-04  0.00D+00 EMaxC= 1.00D-01 BMatC= 1.34D-05 BMatP= 3.40D-04
 IDIUse=3 WtCom= 9.99D-01 WtEn= 1.02D-03
 EnCoef did     1 forward-backward iterations
 Coeff-Com: -0.109D-02 0.222D+00 0.106D+00 0.210D+00 0.463D+00
 Coeff-En:   0.000D+00 0.000D+00 0.000D+00 0.416D-03 0.100D+01
 Coeff:     -0.109D-02 0.221D+00 0.106D+00 0.210D+00 0.463D+00
 Gap=     0.122 Goal=   None    Shift=    0.000
 RMSDP=9.69D-06 MaxDP=5.74D-04 DE=-2.87D-04 OVMax= 1.14D-03

 Cycle   6  Pass 1  IDiag  1:
 RMSU=  4.30D-06    CP:  9.99D-01  8.80D-01  4.19D-01  3.84D-01  6.48D-01
 E= -7517.82042894769     Delta-E=       -0.000012286760 Rises=F Damp=F
 DIIS: error= 2.39D-05 at cycle   6 NSaved=   6.
 NSaved= 6 IEnMin= 6 EnMin= -7517.82042894769     IErMin= 6 ErrMin= 2.39D-05
 ErrMax= 2.39D-05  0.00D+00 EMaxC= 1.00D-01 BMatC= 6.70D-07 BMatP= 1.34D-05
 IDIUse=1 WtCom= 1.00D+00 WtEn= 0.00D+00
 Coeff-Com: -0.607D-03 0.971D-01 0.481D-01 0.974D-01 0.261D+00 0.497D+00
 Coeff:     -0.607D-03 0.971D-01 0.481D-01 0.974D-01 0.261D+00 0.497D+00
 Gap=     0.122 Goal=   None    Shift=    0.000
 RMSDP=3.77D-06 MaxDP=1.49D-04 DE=-1.23D-05 OVMax= 4.13D-04

 Cycle   7  Pass 1  IDiag  1:
 RMSU=  3.11D-06    CP:  9.99D-01  8.82D-01  4.22D-01  3.77D-01  7.18D-01
                    CP:  6.01D-01
 E= -7517.82042910714     Delta-E=       -0.000000159445 Rises=F Damp=F
 DIIS: error= 2.36D-05 at cycle   7 NSaved=   7.
 NSaved= 7 IEnMin= 7 EnMin= -7517.82042910714     IErMin= 7 ErrMin= 2.36D-05
 ErrMax= 2.36D-05  0.00D+00 EMaxC= 1.00D-01 BMatC= 5.30D-07 BMatP= 6.70D-07
 IDIUse=1 WtCom= 1.00D+00 WtEn= 0.00D+00
 Coeff-Com: -0.153D-03 0.560D-02 0.501D-02 0.111D-01 0.690D-01 0.477D+00
 Coeff-Com:  0.432D+00
 Coeff:     -0.153D-03 0.560D-02 0.501D-02 0.111D-01 0.690D-01 0.477D+00
 Coeff:      0.432D+00
 Gap=     0.122 Goal=   None    Shift=    0.000
 RMSDP=2.41D-06 MaxDP=1.09D-04 DE=-1.59D-07 OVMax= 2.71D-04

 Cycle   8  Pass 1  IDiag  1:
 RMSU=  9.23D-07    CP:  9.99D-01  8.84D-01  4.25D-01  3.78D-01  7.35D-01
                    CP:  9.35D-01  5.15D-01
 E= -7517.82042978606     Delta-E=       -0.000000678920 Rises=F Damp=F
 DIIS: error= 7.03D-06 at cycle   8 NSaved=   8.
 NSaved= 8 IEnMin= 8 EnMin= -7517.82042978606     IErMin= 8 ErrMin= 7.03D-06
 ErrMax= 7.03D-06  0.00D+00 EMaxC= 1.00D-01 BMatC= 4.32D-08 BMatP= 5.30D-07
 IDIUse=1 WtCom= 1.00D+00 WtEn= 0.00D+00
 Coeff-Com:  0.108D-04-0.151D-01-0.586D-02-0.972D-02-0.358D-02 0.227D+00
 Coeff-Com:  0.291D+00 0.516D+00
 Coeff:      0.108D-04-0.151D-01-0.586D-02-0.972D-02-0.358D-02 0.227D+00
 Coeff:      0.291D+00 0.516D+00
 Gap=     0.122 Goal=   None    Shift=    0.000
 RMSDP=6.45D-07 MaxDP=2.59D-05 DE=-6.79D-07 OVMax= 7.25D-05

 Cycle   9  Pass 1  IDiag  1:
 RMSU=  2.84D-07    CP:  9.99D-01  8.85D-01  4.26D-01  3.81D-01  7.44D-01
                    CP:  9.51D-01  6.21D-01  5.78D-01
 E= -7517.82042983203     Delta-E=       -0.000000045968 Rises=F Damp=F
 DIIS: error= 1.32D-06 at cycle   9 NSaved=   9.
 NSaved= 9 IEnMin= 9 EnMin= -7517.82042983203     IErMin= 9 ErrMin= 1.32D-06
 ErrMax= 1.32D-06  0.00D+00 EMaxC= 1.00D-01 BMatC= 2.86D-09 BMatP= 4.32D-08
 IDIUse=1 WtCom= 1.00D+00 WtEn= 0.00D+00
 Coeff-Com:  0.234D-04-0.937D-02-0.390D-02-0.658D-02-0.104D-01 0.798D-01
 Coeff-Com:  0.124D+00 0.291D+00 0.536D+00
 Coeff:      0.234D-04-0.937D-02-0.390D-02-0.658D-02-0.104D-01 0.798D-01
 Coeff:      0.124D+00 0.291D+00 0.536D+00
 Gap=     0.122 Goal=   None    Shift=    0.000
 RMSDP=1.82D-07 MaxDP=1.20D-05 DE=-4.60D-08 OVMax= 3.39D-05

 Cycle  10  Pass 1  IDiag  1:
 RMSU=  9.52D-08    CP:  9.99D-01  8.85D-01  4.26D-01  3.83D-01  7.49D-01
                    CP:  9.55D-01  6.25D-01  6.70D-01  8.56D-01
 E= -7517.82042983508     Delta-E=       -0.000000003054 Rises=F Damp=F
 DIIS: error= 2.60D-07 at cycle  10 NSaved=  10.
 NSaved=10 IEnMin=10 EnMin= -7517.82042983508     IErMin=10 ErrMin= 2.60D-07
 ErrMax= 2.60D-07  0.00D+00 EMaxC= 1.00D-01 BMatC= 8.23D-11 BMatP= 2.86D-09
 IDIUse=1 WtCom= 1.00D+00 WtEn= 0.00D+00
 Coeff-Com:  0.128D-05 0.260D-03 0.141D-03 0.828D-04-0.116D-02-0.120D-01
 Coeff-Com: -0.119D-01-0.106D-01 0.112D+00 0.924D+00
 Coeff:      0.128D-05 0.260D-03 0.141D-03 0.828D-04-0.116D-02-0.120D-01
 Coeff:     -0.119D-01-0.106D-01 0.112D+00 0.924D+00
 Gap=     0.122 Goal=   None    Shift=    0.000
 RMSDP=6.37D-08 MaxDP=2.91D-06 DE=-3.05D-09 OVMax= 1.33D-05

 Cycle  11  Pass 1  IDiag  1:
 RMSU=  2.55D-08    CP:  9.99D-01  8.85D-01  4.26D-01  3.83D-01  7.50D-01
                    CP:  9.63D-01  6.32D-01  6.81D-01  9.64D-01  1.15D+00
 E= -7517.82042983522     Delta-E=       -0.000000000135 Rises=F Damp=F
 DIIS: error= 1.06D-07 at cycle  11 NSaved=  11.
 NSaved=11 IEnMin=11 EnMin= -7517.82042983522     IErMin=11 ErrMin= 1.06D-07
 ErrMax= 1.06D-07  0.00D+00 EMaxC= 1.00D-01 BMatC= 1.19D-11 BMatP= 8.23D-11
 IDIUse=1 WtCom= 1.00D+00 WtEn= 0.00D+00
 Coeff-Com: -0.633D-06 0.658D-03 0.296D-03 0.418D-03 0.334D-04-0.104D-01
 Coeff-Com: -0.126D-01-0.215D-01 0.191D-01 0.435D+00 0.589D+00
 Coeff:     -0.633D-06 0.658D-03 0.296D-03 0.418D-03 0.334D-04-0.104D-01
 Coeff:     -0.126D-01-0.215D-01 0.191D-01 0.435D+00 0.589D+00
 Gap=     0.122 Goal=   None    Shift=    0.000
 RMSDP=1.51D-08 MaxDP=6.58D-07 DE=-1.35D-10 OVMax= 2.76D-06

 Cycle  12  Pass 1  IDiag  1:
 RMSU=  1.06D-08    CP:  9.99D-01  8.85D-01  4.26D-01  3.83D-01  7.50D-01
                    CP:  9.63D-01  6.33D-01  6.83D-01  9.82D-01  1.19D+00
                    CP:  7.66D-01
 E= -7517.82042983521     Delta-E=        0.000000000007 Rises=F Damp=F
 DIIS: error= 4.14D-08 at cycle  12 NSaved=  12.
 NSaved=12 IEnMin=11 EnMin= -7517.82042983522     IErMin=12 ErrMin= 4.14D-08
 ErrMax= 4.14D-08  0.00D+00 EMaxC= 1.00D-01 BMatC= 2.00D-12 BMatP= 1.19D-11
 IDIUse=1 WtCom= 1.00D+00 WtEn= 0.00D+00
 Coeff-Com: -0.444D-06 0.319D-03 0.142D-03 0.206D-03 0.152D-03-0.425D-02
 Coeff-Com: -0.561D-02-0.102D-01-0.405D-02 0.131D+00 0.329D+00 0.563D+00
 Coeff:     -0.444D-06 0.319D-03 0.142D-03 0.206D-03 0.152D-03-0.425D-02
 Coeff:     -0.561D-02-0.102D-01-0.405D-02 0.131D+00 0.329D+00 0.563D+00
 Gap=     0.122 Goal=   None    Shift=    0.000
 RMSDP=6.63D-09 MaxDP=4.66D-07 DE= 7.28D-12 OVMax= 7.38D-07

 SCF Done:  E(RPBE1PBE) =  -7517.82042984     A.U. after   12 cycles
            NFock= 12  Conv=0.66D-08     -V/T= 2.1284
 KE= 6.662173747833D+03 PE=-2.485532664893D+04 EE= 7.043341673150D+03
 Leave Link  502 at Tue Mar  6 12:29:17 2018, MaxMem=   536870912 cpu:      2511.1
 (Enter /share/apps//mg09/l701.exe)
 Compute integral first derivatives.
 ... and contract with generalized density number  0.
   1 Symmetry operations used in ECPInt.
 ECPInt:  NShTT=   10440 NPrTT=   41973 LenC2=    9722 LenP2D=   27618.
 LDataN:  DoStor=T MaxTD1= 9 Len=  602
 Leave Link  701 at Tue Mar  6 12:29:37 2018, MaxMem=   536870912 cpu:        75.3
 (Enter /share/apps//mg09/l702.exe)
 L702 exits ... SP integral derivatives will be done elsewhere.
 Leave Link  702 at Tue Mar  6 12:29:37 2018, MaxMem=   536870912 cpu:         0.0
 (Enter /share/apps//mg09/l703.exe)
 Compute integral first derivatives, UseDBF=F ICtDFT=           0.
 Integral derivatives from FoFJK, PRISM(SPDF).
 Calling FoFJK, ICntrl=      2127 FMM=F ISym2X=0 I1Cent= 0 IOpClX= 0 NMat=1 NMatS=1 NMatT=0.
 FoFJK:  IHMeth= 1 ICntrl=    2127 DoSepK=F KAlg= 0 I1Cent=   0 FoldK=F
 IRaf=         0 NMat=   1 IRICut=       1 DoRegI=T DoRafI=F ISym2E= 0.
 FoFCou: FMM=F IPFlag=           0 FMFlag=      100000 FMFlg1=         800
         NFxFlg=           0 DoJE=F BraDBF=F KetDBF=F FulRan=T
         wScrn=  0.000000 ICntrl=    2127 IOpCl=  0 I1Cent=           0 NGrid=           0
         NMat0=    1 NMatS0=      1 NMatT0=    0 NMatD0=    1 NMtDS0=    0 NMtDT0=    0
 Symmetry not used in FoFCou.
 Defaulting to unpruned grid for atomic number  50.
 Defaulting to unpruned grid for atomic number  50.
 Defaulting to unpruned grid for atomic number  50.
 Defaulting to unpruned grid for atomic number  50.
 Leave Link  703 at Tue Mar  6 12:33:46 2018, MaxMem=   536870912 cpu:       892.7
 (Enter /share/apps//mg09/l716.exe)
 Dipole        =-1.97604506D-04-2.51798796D-01-7.67584663D-01
 ***** Axes restored to original set *****
 -------------------------------------------------------------------
 Center     Atomic                   Forces (Hartrees/Bohr)
 Number     Number              X              Y              Z
 -------------------------------------------------------------------
      1       50          -0.000005126   -0.000523509    0.004058009
      2       32          -0.000009004    0.007455453   -0.003042380
      3       83           0.000855864    0.000323202    0.001191593
      4       83          -0.000840228    0.000312333    0.001191076
      5       83          -0.000883835    0.000709994    0.001505460
      6       32          -0.008369477   -0.001573011   -0.004341508
      7       50          -0.000006790   -0.005825003    0.002259862
      8       32           0.008372681   -0.001578444   -0.004315040
      9       83           0.000885915    0.000698985    0.001492927
 -------------------------------------------------------------------
 Cartesian Forces:  Max     0.008372681 RMS     0.003414220
 Leave Link  716 at Tue Mar  6 12:33:46 2018, MaxMem=   536870912 cpu:         0.1
 (Enter /share/apps//mg09/l103.exe)

 GradGradGradGradGradGradGradGradGradGradGradGradGradGradGradGradGradGrad
 Berny optimization.
 Search for a local minimum.
 Step number   2 out of a maximum of  100
 All quantities printed in internal units (Hartrees-Bohrs-Radians)
 Update second derivatives using D2CorN and points    1    2
 DE= -5.75D-03 DEPred=-4.21D-03 R= 1.37D+00
 TightC=F SS=  1.41D+00  RLast= 2.20D-01 DXNew= 5.0454D-01 6.6010D-01
 Trust test= 1.37D+00 RLast= 2.20D-01 DXMaxT set to 5.05D-01
 ITU=  1  0
     Eigenvalues ---    0.07618   0.09519   0.11979   0.12418   0.12801
     Eigenvalues ---    0.13119   0.13816   0.15286   0.16236   0.16388
     Eigenvalues ---    0.18745   0.21332   0.21980   0.23559   0.24432
     Eigenvalues ---    0.25736   0.26245   0.29141   0.30093   0.31059
     Eigenvalues ---    0.31677
 RFO step:  Lambda=-5.12456213D-04 EMin= 7.61783316D-02
 Quartic linear search produced a step of  0.62757.
 TrRot=  0.000028  0.000098 -0.000301 -1.129867 -0.000092  1.129868
 Variable       Old X    -DE/DX   Delta X   Delta X   Delta X     New X
                                 (Linear)    (Quad)   (Total)
    X1        0.00003  -0.00001  -0.00021  -0.00003  -0.00003   0.00000
    Y1       -0.05766  -0.00052   0.00149  -0.01033  -0.00911  -0.06677
    Z1       -4.47143   0.00406   0.04206  -0.00324   0.03853  -4.43290
    X2        0.00143  -0.00001   0.00010  -0.00005  -0.00008   0.00135
    Y2       -3.46621   0.00746   0.04922   0.01223   0.06189  -3.40432
    Z2        4.14594  -0.00304  -0.02806  -0.00032  -0.02839   4.11755
    X3       -4.08220   0.00086   0.03347  -0.01356   0.01998  -4.06222
    Y3        2.16767   0.00032  -0.01559   0.01319  -0.00240   2.16528
    Z3       -1.13505   0.00119   0.01387  -0.00049   0.01274  -1.12231
    X4        4.08125  -0.00084  -0.03355   0.01362  -0.01986   4.06139
    Y4        2.16888   0.00031  -0.01568   0.01317  -0.00250   2.16638
    Z4       -1.13505   0.00119   0.01351  -0.00051   0.01269  -1.12237
    X5        2.92752  -0.00088  -0.02278   0.00978  -0.01296   2.91456
    Y5       -3.28214   0.00071   0.02672  -0.01200   0.01479  -3.26735
    Z5       -0.38720   0.00151   0.00840   0.00178   0.01027  -0.37693
    X6        2.64081  -0.00837  -0.04059  -0.01381  -0.05453   2.58628
    Y6        0.83880  -0.00157  -0.00819  -0.00276  -0.01052   0.82828
    Z6        4.07337  -0.00434  -0.02958  -0.00676  -0.03661   4.03676
    X7       -0.00058  -0.00001   0.00001  -0.00003  -0.00006  -0.00064
    Y7        4.90654  -0.00583  -0.05646  -0.00008  -0.05629   4.85025
    Z7        1.75268   0.00226   0.00050   0.01728   0.01707   1.76976
    X8       -2.64128   0.00837   0.04085   0.01384   0.05455  -2.58673
    Y8        0.83742  -0.00158  -0.00821  -0.00280  -0.01059   0.82683
    Z8        4.07268  -0.00432  -0.02929  -0.00667  -0.03644   4.03625
    X9       -2.92683   0.00089   0.02270  -0.00976   0.01298  -2.91384
[...]
     X                                              X                                                                                
     X                                              X                                                                                
     X                                              X                                                                                
     X                                              X                                                                                
     X                                              X                                                                                
     X                                              X                                                                                
     X                                              X                                                                                
     X                                              X                                                                                
     X                                              X                                                                                
     X                                              X                                                                                
     X                                              X                                                                                
     X                                              X                                                                                
     X                                              X                                                                                
                                                    X                                                                                
                                                    X                                                                                
 
 ***** Axes restored to original set *****
 -------------------------------------------------------------------
 Center     Atomic                   Forces (Hartrees/Bohr)
 Number     Number              X              Y              Z
 -------------------------------------------------------------------
      1       50          -0.000001194    0.000039517   -0.000000841
      2       32          -0.000002105   -0.000194917    0.000166585
      3       83           0.000014435   -0.000049719   -0.000009333
      4       83          -0.000013728   -0.000048185   -0.000009823
      5       83          -0.000016422    0.000114419   -0.000002778
      6       32          -0.000071862   -0.000042312   -0.000062753
      7       50          -0.000001421    0.000106130   -0.000015287
      8       32           0.000074343   -0.000035665   -0.000056661
      9       83           0.000017955    0.000110732   -0.000009111
 -------------------------------------------------------------------
 Cartesian Forces:  Max     0.000194917 RMS     0.000069688
 Force constants in Cartesian coordinates: 
                1             2             3             4             5 
      1  0.513501D-01
      2 -0.328814D-05  0.265245D-01
      3  0.720991D-05 -0.305393D-03  0.671312D-01
      4 -0.881802D-03 -0.192457D-05  0.000000D+00  0.438490D-01
      5 -0.172602D-05  0.688054D-03 -0.199478D-02 -0.985522D-05  0.755652D-01
      6 -0.188840D-05  0.433880D-02 -0.322586D-02  0.558998D-05 -0.139081D-01
      7 -0.194233D-01  0.118141D-01  0.124672D-01 -0.452731D-03  0.525195D-03
      8  0.127157D-01 -0.697216D-02 -0.655260D-02  0.627770D-02 -0.113269D-02
      9  0.134658D-01 -0.646432D-02 -0.142855D-01 -0.261564D-02  0.105284D-02
     10 -0.194172D-01 -0.118176D-01 -0.124653D-01 -0.450188D-03 -0.524974D-03
     11 -0.127186D-01 -0.697901D-02 -0.655604D-02 -0.627632D-02 -0.113570D-02
     12 -0.134643D-01 -0.646925D-02 -0.142862D-01  0.261712D-02  0.105555D-02
     13 -0.699791D-02  0.111528D-01 -0.667241D-02 -0.101962D-01  0.176543D-02
     14  0.957786D-02 -0.370864D-02  0.720141D-02  0.256578D-02 -0.424798D-02
     15 -0.429039D-02  0.836598D-02 -0.117423D-01  0.170650D-01  0.664329D-03
     16  0.137383D-02  0.188402D-02  0.115444D-02 -0.683451D-02 -0.158944D-01
     17  0.165342D-02 -0.305076D-02 -0.110624D-03 -0.191285D-01 -0.311700D-01
     18 -0.688094D-02 -0.202944D-02 -0.512322D-02  0.657255D-03  0.590731D-02
     19 -0.393020D-03  0.000000D+00  0.000000D+00 -0.798232D-02 -0.185244D-05
     20  0.000000D+00  0.257957D-03  0.123305D-02  0.000000D+00 -0.317357D-02
     21  0.143794D-05 -0.376948D-02 -0.160696D-02  0.000000D+00  0.656959D-03
     22  0.137581D-02 -0.188112D-02 -0.115523D-02 -0.685046D-02  0.159073D-01
     23 -0.165053D-02 -0.305142D-02 -0.111289D-03  0.191413D-01 -0.311413D-01
     24  0.688073D-02 -0.202579D-02 -0.512394D-02 -0.658635D-03  0.590699D-02
     25 -0.698652D-02 -0.111460D-01  0.666505D-02 -0.102008D-01 -0.176518D-02
     26 -0.957290D-02 -0.370848D-02  0.719626D-02 -0.256733D-02 -0.425200D-02
     27  0.428232D-02  0.835890D-02 -0.117372D-01 -0.170700D-01  0.658951D-03
                6             7             8             9            10 
      6  0.671602D-01
      7  0.611461D-03  0.611090D-01
      8  0.244275D-02 -0.172467D-01  0.700297D-01
      9 -0.211435D-02  0.140939D-01  0.125796D-02  0.525933D-01
     10 -0.612068D-03 -0.480575D-02 -0.318396D-02  0.240695D-02  0.610986D-01
     11  0.244239D-02  0.318152D-02 -0.425464D-04 -0.232116D-02  0.172433D-01
     12 -0.211303D-02 -0.240669D-02 -0.232275D-02  0.224872D-03 -0.140916D-01
     13  0.172019D-01 -0.300165D-02  0.339124D-02  0.218679D-02 -0.466704D-02
     14  0.193900D-02 -0.887159D-03 -0.247335D-02  0.321213D-03 -0.792892D-02
     15 -0.271795D-01 -0.188278D-02  0.264520D-02  0.257498D-02  0.255781D-02
     16 -0.649777D-03 -0.487290D-02 -0.428157D-02 -0.158452D-02 -0.483380D-02
     17  0.798365D-03  0.543775D-03 -0.138711D-02  0.261378D-02 -0.361512D-02
     18 -0.858180D-03 -0.169509D-03  0.739435D-03 -0.451174D-02  0.580852D-02
     19  0.000000D+00 -0.190449D-01 -0.108040D-01 -0.159505D-01 -0.190496D-01
     20 -0.784874D-03 -0.948853D-02 -0.929735D-02 -0.675591D-02  0.948459D-02
     21 -0.364356D-02 -0.143416D-01 -0.646575D-02 -0.920360D-02  0.143439D-01
     22  0.651433D-03 -0.483655D-02  0.528365D-02 -0.785475D-02 -0.487358D-02
     23  0.798463D-03  0.361590D-02  0.643775D-03  0.461879D-02 -0.543207D-03
     24 -0.861427D-03 -0.581146D-02  0.574313D-02 -0.247833D-01  0.170531D-03
     25 -0.172059D-01 -0.467125D-02  0.784800D-02 -0.414799D-02 -0.300143D-02
     26  0.193324D-02  0.794195D-02 -0.493683D-01  0.567680D-02  0.885893D-03
     27 -0.271643D-01 -0.256055D-02  0.251262D-02 -0.494682D-03  0.188127D-02
               11            12            13            14            15 
     11  0.700411D-01
     12  0.126441D-02  0.525888D-01
     13 -0.783674D-02  0.414445D-02  0.631816D-01
     14 -0.493775D-01  0.567218D-02 -0.108430D-01  0.760044D-01
     15  0.250562D-02 -0.492062D-03 -0.140902D-01 -0.566391D-02  0.440210D-01
     16 -0.528201D-02  0.785072D-02 -0.103060D-02  0.130271D-02 -0.720087D-03
     17  0.644594D-03  0.461343D-02  0.575749D-03 -0.399822D-02 -0.302394D-02
     18  0.574144D-02 -0.247813D-01 -0.139228D-02 -0.475814D-02 -0.539140D-02
     19  0.108020D-01  0.159532D-01  0.138158D-02  0.692556D-02 -0.188506D-02
     20 -0.929175D-02 -0.675084D-02 -0.147564D-02 -0.604909D-02 -0.483708D-03
     21 -0.646391D-02 -0.920406D-02 -0.361229D-02 -0.384133D-02 -0.107810D-02
     22  0.427945D-02  0.158452D-02 -0.684712D-02 -0.116426D-02  0.415787D-02
     23 -0.138681D-02  0.261533D-02  0.372946D-02 -0.148493D-02 -0.617603D-02
     24  0.738544D-03 -0.451059D-02  0.131060D-02 -0.203648D-02 -0.522913D-02
     25 -0.339264D-02 -0.218748D-02 -0.318226D-01  0.451374D-03 -0.912152D-03
     26 -0.247242D-02  0.321928D-03 -0.459323D-03 -0.466477D-02  0.116647D-02
     27  0.264869D-02  0.257361D-02  0.923431D-03  0.116605D-02  0.451649D-02
               16            17            18            19            20 
     16  0.578357D-01
     17  0.105749D-01  0.591366D-01
     18  0.103797D-01 -0.128609D-01  0.544900D-01
     19 -0.612684D-02  0.134264D-01 -0.111350D-01  0.559464D-01
     20  0.102528D-01 -0.221680D-01  0.874237D-02 -0.119485D-04  0.779368D-01
     21 -0.823015D-02  0.135927D-01 -0.423552D-02  0.649435D-05 -0.345117D-02
     22 -0.286643D-01 -0.299281D-03  0.404265D-02 -0.611494D-02 -0.102386D-01
     23  0.281088D-03  0.347923D-02  0.555160D-03 -0.134113D-01 -0.221640D-01
     24 -0.404360D-02  0.553904D-03 -0.436048D-02  0.111265D-01  0.873449D-02
     25 -0.684660D-02 -0.373131D-02 -0.131034D-02  0.138363D-02  0.147815D-02
     26  0.116248D-02 -0.148637D-02 -0.203728D-02 -0.692389D-02 -0.605101D-02
     27 -0.415670D-02 -0.617672D-02 -0.522811D-02  0.188592D-02 -0.483407D-03
               21            22            23            24            25 
     21  0.342792D-01
     22  0.821960D-02  0.578430D-01
     23  0.135831D-01 -0.105829D-01  0.591170D-01
     24 -0.422979D-02 -0.103687D-01 -0.128436D-01  0.545036D-01
     25  0.361312D-02 -0.103190D-02 -0.579851D-03  0.139405D-02  0.631774D-01
     26 -0.384109D-02 -0.130434D-02 -0.401151D-02 -0.477121D-02  0.108375D-01
     27 -0.107765D-02  0.722626D-03 -0.303996D-02 -0.540494D-02  0.140916D-01
               26            27 
     26  0.760148D-01
     27 -0.564512D-02  0.440168D-01
 Leave Link  716 at Tue Mar  6 14:55:32 2018, MaxMem=   536870912 cpu:         0.1
 (Enter /share/apps//mg09/l103.exe)

 GradGradGradGradGradGradGradGradGradGradGradGradGradGradGradGradGradGrad
 Berny optimization.
 Search for a local minimum.
 Step number   1 out of a maximum of    2
 All quantities printed in internal units (Hartrees-Bohrs-Radians)
 Second derivative matrix not updated -- analytic derivatives used.
 ITU=  0
     Eigenvalues ---    0.00507   0.00929   0.03359   0.03588   0.03892
     Eigenvalues ---    0.04862   0.05247   0.05894   0.06003   0.06152
     Eigenvalues ---    0.06800   0.06903   0.08138   0.08358   0.09637
     Eigenvalues ---    0.11173   0.11810   0.12240   0.13320   0.14182
     Eigenvalues ---    0.14515
 Angle between quadratic step and forces=  43.38 degrees.
 Linear search not attempted -- first point.
 TrRot= -0.000002 -0.000116 -0.000008 -0.000002  0.000001 -0.000002
 Variable       Old X    -DE/DX   Delta X   Delta X   Delta X     New X
                                 (Linear)    (Quad)   (Total)
    X1       -0.00010   0.00000   0.00000  -0.00006  -0.00007  -0.00017
    Y1       -0.07553   0.00004   0.00000  -0.00146  -0.00158  -0.07711
    Z1       -4.40219   0.00000   0.00000  -0.00104  -0.00105  -4.40324
    X2        0.00112   0.00000   0.00000  -0.00038  -0.00040   0.00073
    Y2       -3.39535  -0.00019   0.00000  -0.00294  -0.00305  -3.39840
    Z2        4.11794   0.00017   0.00000   0.00279   0.00278   4.12073
    X3       -4.08323   0.00001   0.00000   0.00145   0.00146  -4.08177
    Y3        2.17576  -0.00005   0.00000   0.00088   0.00078   2.17653
    Z3       -1.12318  -0.00001   0.00000  -0.00118  -0.00118  -1.12436
    X4        4.08249  -0.00001   0.00000  -0.00154  -0.00154   4.08095
    Y4        2.17689  -0.00005   0.00000   0.00117   0.00103   2.17792
    Z4       -1.12330  -0.00001   0.00000  -0.00139  -0.00141  -1.12471
    X5        2.93631  -0.00002   0.00000   0.00035   0.00034   2.93664
    Y5       -3.27556   0.00011   0.00000   0.00231   0.00218  -3.27338
    Z5       -0.37439   0.00000   0.00000   0.00165   0.00163  -0.37275
    X6        2.56184  -0.00007   0.00000  -0.00075  -0.00075   2.56109
    Y6        0.82248  -0.00004   0.00000  -0.00167  -0.00179   0.82068
    Z6        4.01024  -0.00006   0.00000  -0.00178  -0.00179   4.00845
    X7       -0.00072   0.00000   0.00000  -0.00005  -0.00003  -0.00074
    Y7        4.85716   0.00011   0.00000   0.00192   0.00180   4.85896
    Z7        1.78844  -0.00002   0.00000   0.00141   0.00140   1.78984
    X8       -2.56210   0.00007   0.00000   0.00107   0.00108  -2.56102
    Y8        0.82110  -0.00004   0.00000  -0.00114  -0.00125   0.81985
    Z8        4.01008  -0.00006   0.00000  -0.00139  -0.00140   4.00869
    X9       -2.93547   0.00002   0.00000  -0.00008  -0.00009  -2.93557
    Y9       -3.27626   0.00011   0.00000   0.00198   0.00188  -3.27438
    Z9       -0.37353  -0.00001   0.00000   0.00101   0.00100  -0.37253
         Item               Value     Threshold  Converged?
 Maximum Force            0.000195     0.000450     YES
 RMS     Force            0.000070     0.000300     YES
 Maximum Displacement     0.003051     0.001800     NO 
 RMS     Displacement     0.001481     0.001200     NO 
 Predicted change in Energy=-1.014037D-06
 GradGradGradGradGradGradGradGradGradGradGradGradGradGradGradGradGradGrad

 Leave Link  103 at Tue Mar  6 14:55:32 2018, MaxMem=   536870912 cpu:         0.1
 (Enter /share/apps//mg09/l9999.exe)
 1\1\GINC-COMPUTE-0-0\Freq\RPBE1PBE\def2TZVP\Bi4Ge3Sn2\RODRIGO\06-Mar-2
 018\0\\#P Geom=AllCheck Guess=TCheck SCRF=Check GenChk RPBE1PBE/def2TZ
 VP Freq\\01Final_coords.xyz_24\\0,1\Sn,-0.0000533897,-0.0399688775,-2.
 3295387675\Ge,0.0005936482,-1.7967419085,2.179122429\Bi,-2.1607520028,
 1.1513613688,-0.5943615381\Bi,2.1603589099,1.1519590017,-0.5944271384\
 Bi,1.5538277959,-1.7333507062,-0.1981161852\Ge,1.3556679095,0.43523624
 72,2.1221269369\Sn,-0.0003784775,2.5702975902,0.9464032037\Ge,-1.35580
 4929,0.4345062009,2.1220431348\Bi,-1.5533854645,-1.7337199166,-0.19766
 30752\\Version=ES64L-G09RevD.01\State=1-A\HF=-7517.8220976\RMSD=3.124e
 -09\RMSF=6.969e-05\ZeroPoint=0.0058096\Thermal=0.0233\Dipole=-0.000163
 7,-0.2497126,-0.7926224\DipoleDeriv=-0.0518715,-0.000028,0.0000088,-0.
 0000121,0.0501025,0.0451332,-0.000019,0.0321832,0.3318008,-0.1450299,0
 .0000012,0.0000268,-0.00006,0.0241201,-0.2183911,0.0000637,-0.1504875,
 0.0464321,0.0462484,-0.0524154,0.0699358,-0.0222675,-0.162422,-0.06025
 01,0.0003012,-0.0213996,-0.1985556,0.0461352,0.0524531,-0.0699215,0.02
 23596,-0.1624977,-0.0602919,-0.0003371,-0.0214359,-0.198642,0.0967067,
 -0.0108337,0.0312551,0.0187754,0.0415262,0.0153774,0.0533115,-0.011264
 4,-0.0180397,-0.0123251,-0.0810463,0.1170887,-0.0609728,-0.0705608,0.0
 569749,-0.0539303,0.0483523,-0.0200357,-0.0642625,-0.0000607,0.0000186
 ,-0.0000286,0.3086764,0.1492728,0.0000134,0.0870902,0.0950657,-0.01236
 06,0.081051,-0.1171719,0.0609597,-0.0705198,0.0569024,0.0538723,0.0483
 126,-0.0200361,0.0967592,0.0108789,-0.0312404,-0.0187536,0.0415751,0.0
 152724,-0.0532757,-0.011351,-0.0179894\Polar=376.5271314,-0.0053254,38
 4.0064185,0.0013815,2.4401682,374.4944435\PG=C01 [X(Bi4Ge3Sn2)]\NImag=
 0\\0.05135011,-0.00000329,0.02652446,0.00000721,-0.00030539,0.06713120
 ,-0.00088180,-0.00000192,-0.00000017,0.04384905,-0.00000173,0.00068805
 ,-0.00199478,-0.00000986,0.07556520,-0.00000189,0.00433880,-0.00322586
 ,0.00000559,-0.01390815,0.06716022,-0.01942330,0.01181407,0.01246723,-
 0.00045273,0.00052520,0.00061146,0.06110901,0.01271566,-0.00697216,-0.
 00655260,0.00627770,-0.00113269,0.00244275,-0.01724672,0.07002969,0.01
 346579,-0.00646432,-0.01428553,-0.00261564,0.00105284,-0.00211435,0.01
 409389,0.00125796,0.05259332,-0.01941719,-0.01181758,-0.01246534,-0.00
 045019,-0.00052497,-0.00061207,-0.00480575,-0.00318396,0.00240695,0.06
 109859,-0.01271855,-0.00697901,-0.00655604,-0.00627632,-0.00113570,0.0
 0244239,0.00318152,-0.00004255,-0.00232116,0.01724328,0.07004110,-0.01
 346428,-0.00646925,-0.01428624,0.00261712,0.00105555,-0.00211303,-0.00
 240669,-0.00232275,0.00022487,-0.01409158,0.00126441,0.05258880,-0.006
 99791,0.01115277,-0.00667241,-0.01019624,0.00176543,0.01720191,-0.0030
 0165,0.00339124,0.00218679,-0.00466704,-0.00783674,0.00414445,0.063181
 57,0.00957786,-0.00370864,0.00720141,0.00256578,-0.00424798,0.00193900
 ,-0.00088716,-0.00247335,0.00032121,-0.00792892,-0.04937746,0.00567218
 ,-0.01084295,0.07600443,-0.00429039,0.00836598,-0.01174227,0.01706498,
 0.00066433,-0.02717952,-0.00188278,0.00264520,0.00257498,0.00255781,0.
 00250562,-0.00049206,-0.01409020,-0.00566391,0.04402101,0.00137383,0.0
 0188402,0.00115444,-0.00683451,-0.01589436,-0.00064978,-0.00487290,-0.
 00428157,-0.00158452,-0.00483380,-0.00528201,0.00785072,-0.00103060,0.
 00130271,-0.00072009,0.05783572,0.00165342,-0.00305076,-0.00011062,-0.
 01912854,-0.03116998,0.00079836,0.00054378,-0.00138711,0.00261378,-0.0
 0361512,0.00064459,0.00461343,0.00057575,-0.00399822,-0.00302394,0.010
 57491,0.05913662,-0.00688094,-0.00202944,-0.00512322,0.00065726,0.0059
 0731,-0.00085818,-0.00016951,0.00073944,-0.00451174,0.00580852,0.00574
 144,-0.02478130,-0.00139228,-0.00475814,-0.00539140,0.01037967,-0.0128
 6086,0.05448995,-0.00039302,-0.00000096,-0.00000077,-0.00798232,-0.000
 00185,-0.00000077,-0.01904488,-0.01080399,-0.01595051,-0.01904963,0.01
 080202,0.01595322,0.00138158,0.00692556,-0.00188506,-0.00612684,0.0134
 2640,-0.01113503,0.05594642,0.00000005,0.00025796,0.00123305,-0.000000
 84,-0.00317357,-0.00078487,-0.00948853,-0.00929735,-0.00675591,0.00948
 459,-0.00929175,-0.00675084,-0.00147564,-0.00604909,-0.00048371,0.0102
 5275,-0.02216801,0.00874237,-0.00001195,0.07793679,0.00000144,-0.00376
 948,-0.00160696,-0.00000052,0.00065696,-0.00364356,-0.01434159,-0.0064
 6575,-0.00920360,0.01434390,-0.00646391,-0.00920406,-0.00361229,-0.003
 84133,-0.00107810,-0.00823015,0.01359266,-0.00423552,0.00000649,-0.003
 45117,0.03427924,0.00137581,-0.00188112,-0.00115523,-0.00685046,0.0159
 0733,0.00065143,-0.00483655,0.00528365,-0.00785475,-0.00487358,0.00427
 945,0.00158452,-0.00684712,-0.00116426,0.00415787,-0.02866431,-0.00029
 928,0.00404265,-0.00611494,-0.01023859,0.00821960,0.05784305,-0.001650
 53,-0.00305142,-0.00011129,0.01914133,-0.03114134,0.00079846,0.0036159
 0,0.00064377,0.00461879,-0.00054321,-0.00138681,0.00261533,0.00372946,
 -0.00148493,-0.00617603,0.00028109,0.00347923,0.00055516,-0.01341134,-
 0.02216396,0.01358311,-0.01058285,0.05911697,0.00688073,-0.00202579,-0
 .00512394,-0.00065864,0.00590699,-0.00086143,-0.00581146,0.00574313,-0
 .02478327,0.00017053,0.00073854,-0.00451059,0.00131060,-0.00203648,-0.
 00522913,-0.00404360,0.00055390,-0.00436048,0.01112651,0.00873449,-0.0
 0422979,-0.01036873,-0.01284357,0.05450357,-0.00698652,-0.01114600,0.0
 0666505,-0.01020079,-0.00176518,-0.01720589,-0.00467125,0.00784800,-0.
 00414799,-0.00300143,-0.00339264,-0.00218748,-0.03182259,0.00045137,-0
 .00091215,-0.00684660,-0.00373131,-0.00131034,0.00138363,0.00147815,0.
 00361312,-0.00103190,-0.00057985,0.00139405,0.06317744,-0.00957290,-0.
 00370848,0.00719626,-0.00256733,-0.00425200,0.00193324,0.00794195,-0.0
 4936826,0.00567680,0.00088589,-0.00247242,0.00032193,-0.00045932,-0.00
 466477,0.00116647,0.00116248,-0.00148637,-0.00203728,-0.00692389,-0.00
 605101,-0.00384109,-0.00130434,-0.00401151,-0.00477121,0.01083746,0.07
 601482,0.00428232,0.00835890,-0.01173718,-0.01706997,0.00065895,-0.027
 16430,-0.00256055,0.00251262,-0.00049468,0.00188127,0.00264869,0.00257
 361,0.00092343,0.00116605,0.00451649,-0.00415670,-0.00617672,-0.005228
 11,0.00188592,-0.00048341,-0.00107765,0.00072263,-0.00303996,-0.005404
 94,0.01409164,-0.00564512,0.04401677\\0.00000119,-0.00003952,0.0000008
 4,0.00000210,0.00019492,-0.00016659,-0.00001443,0.00004972,0.00000933,
 0.00001373,0.00004819,0.00000982,0.00001642,-0.00011442,0.00000278,0.0
 0007186,0.00004231,0.00006275,0.00000142,-0.00010613,0.00001529,-0.000
 07434,0.00003567,0.00005666,-0.00001795,-0.00011073,0.00000911\\\@


 IT TAKES GREATER CHARACTER TO CARRY OFF GOOD FORTUNE THAN BAD.
                     FRENCH PROVERB.
 Job cpu time:       0 days  4 hours 35 minutes 31.1 seconds.
 File lengths (MBytes):  RWF=    299 Int=      0 D2E=      0 Chk=     16 Scr=      1
 Normal termination of Gaussian 09 at Tue Mar  6 14:55:34 2018.
