 Entering Gaussian System, Link 0=/share/apps/mg09/g09
 Initial command:
 /share/apps//mg09/l1.exe "/state/partition1/gauss_tmp/Gau-490.inp" -scrdir="/state/partition1/gauss_tmp/"
 Entering Link 1 = /share/apps//mg09/l1.exe PID=       496.
  
 Copyright (c) 1988,1990,1992,1993,1995,1998,2003,2009,2013,
            Gaussian, Inc.  All Rights Reserved.
  
 This is part of the Gaussian(R) 09 program.  It is based on
 the Gaussian(R) 03 system (copyright 2003, Gaussian, Inc.),
 the Gaussian(R) 98 system (copyright 1998, Gaussian, Inc.),
 the Gaussian(R) 94 system (copyright 1995, Gaussian, Inc.),
 the Gaussian 92(TM) system (copyright 1992, Gaussian, Inc.),
 the Gaussian 90(TM) system (copyright 1990, Gaussian, Inc.),
 the Gaussian 88(TM) system (copyright 1988, Gaussian, Inc.),
 the Gaussian 86(TM) system (copyright 1986, Carnegie Mellon
 University), and the Gaussian 82(TM) system (copyright 1983,
 Carnegie Mellon University). Gaussian is a federally registered
 trademark of Gaussian, Inc.
  
 This software contains proprietary and confidential information,
 including trade secrets, belonging to Gaussian, Inc.
  
 This software is provided under written license and may be
 used, copied, transmitted, or stored only in accord with that
 written license.
  
 The following legend is applicable only to US Government
 contracts under FAR:
  
                    RESTRICTED RIGHTS LEGEND
  
 Use, reproduction and disclosure by the US Government is
 subject to restrictions as set forth in subparagraphs (a)
 and (c) of the Commercial Computer Software - Restricted
 Rights clause in FAR 52.227-19.
  
 Gaussian, Inc.
 340 Quinnipiac St., Bldg. 40, Wallingford CT 06492
  
  
 ---------------------------------------------------------------
 Warning -- This program may not be used in any manner that
 competes with the business of Gaussian, Inc. or will provide
 assistance to any competitor of Gaussian, Inc.  The licensee
 of this program is prohibited from giving any competitor of
 Gaussian, Inc. access to this program.  By using this program,
 the user acknowledges that Gaussian, Inc. is engaged in the
 business of creating and licensing software in the field of
 computational chemistry and represents and warrants to the
 licensee that it is not a competitor of Gaussian, Inc. and that
 it will not use this program in any manner prohibited above.
 ---------------------------------------------------------------
  

 Cite this work as:
 Gaussian 09, Revision D.01,
 M. J. Frisch, G. W. Trucks, H. B. Schlegel, G. E. Scuseria, 
 M. A. Robb, J. R. Cheeseman, G. Scalmani, V. Barone, B. Mennucci, 
 G. A. Petersson, H. Nakatsuji, M. Caricato, X. Li, H. P. Hratchian, 
 A. F. Izmaylov, J. Bloino, G. Zheng, J. L. Sonnenberg, M. Hada, 
 M. Ehara, K. Toyota, R. Fukuda, J. Hasegawa, M. Ishida, T. Nakajima, 
 Y. Honda, O. Kitao, H. Nakai, T. Vreven, J. A. Montgomery, Jr., 
 J. E. Peralta, F. Ogliaro, M. Bearpark, J. J. Heyd, E. Brothers, 
 K. N. Kudin, V. N. Staroverov, T. Keith, R. Kobayashi, J. Normand, 
 K. Raghavachari, A. Rendell, J. C. Burant, S. S. Iyengar, J. Tomasi, 
 M. Cossi, N. Rega, J. M. Millam, M. Klene, J. E. Knox, J. B. Cross, 
 V. Bakken, C. Adamo, J. Jaramillo, R. Gomperts, R. E. Stratmann, 
 O. Yazyev, A. J. Austin, R. Cammi, C. Pomelli, J. W. Ochterski, 
 R. L. Martin, K. Morokuma, V. G. Zakrzewski, G. A. Voth, 
 P. Salvador, J. J. Dannenberg, S. Dapprich, A. D. Daniels, 
 O. Farkas, J. B. Foresman, J. V. Ortiz, J. Cioslowski, 
 and D. J. Fox, Gaussian, Inc., Wallingford CT, 2013.
 
 ******************************************
 Gaussian 09:  ES64L-G09RevD.01 24-Apr-2013
                 6-Mar-2018 
 ******************************************
 %NProcShared=4
 Will use up to    4 processors via shared memory.
 %LindaWorkers=compute-0-5
 %chk=Isomer_12.chk
 %NProc=4
 Will use up to    4 processors via shared memory.
 %mem=4GB
 SetLPE:  input flags=" -vv -opt "Tsnet.Node.lindarsharg: ssh" "
 SetLPE:    new flags=" -vv -opt "Tsnet.Node.lindarsharg: ssh"  -nodelist 'compute-0-5.local'"
 Will use up to    1 processors via Linda.
 ----------------------------------------------------------------------
 #p PBE1PBE/Def2TZVP scf=(maxcycle=768) opt=(cartesian,maxcycle=512) fr
 eq
 ----------------------------------------------------------------------
 1/6=512,10=7,14=-1,18=10,26=3,38=1/1,3;
 2/12=2,17=6,18=5,29=2,40=1/2;
 3/5=44,7=101,11=2,16=1,25=1,30=1,71=1,74=-13/1,2,3;
 4//1;
 5/5=2,7=768,38=5/2;
 6/7=2,8=2,9=2,10=2,28=1/1;
 7/7=1,29=1/1,2,3,16;
 1/6=512,10=7,14=-1,18=10,26=3/3(2);
 2/29=1/2;
 99/12=1/99;
 2/29=1/2;
 3/5=44,7=101,11=2,16=1,25=1,30=1,71=1,74=-13/1,2,3;
 4/5=5,16=3,69=1/1;
 5/5=2,7=768,38=5/2;
 7/7=1/1,2,3,16;
 1/6=512,14=-1,18=10,26=3/3(-5);
 2/29=1/2;
 6/7=2,8=2,9=2,10=2,19=2,28=1/1;
 99/9=1,12=1/99;
 Leave Link    1 at Tue Mar  6 11:56:29 2018, MaxMem=   536870912 cpu:         0.5
 (Enter /share/apps//mg09/l101.exe)
 ---------------------
 01Final_coords.xyz_12
 ---------------------
 Symbolic Z-matrix:
 Charge =  0 Multiplicity = 1
 83                    1.949    -1.53192   0.63168 
 83                   -1.93888   0.96723   1.09675 
 83                    1.93693   0.96801  -1.10025 
 50                   -1.0591    1.0138   -2.13731 
 50                    1.05628   1.01536   2.13874 
 83                   -1.94673  -1.53499  -0.63049 
 32                    0.61141  -1.50967  -1.96676 
 32                   -0.60843  -1.50837   1.96904 
 32                    0.00058   2.78273   0.00149 
 
 NAtoms=      9 NQM=        9 NQMF=       0 NMMI=      0 NMMIF=      0
                NMic=       0 NMicF=      0.
                    Isotopes and Nuclear Properties:
 (Nuclear quadrupole moments (NQMom) in fm**2, nuclear magnetic moments (NMagM)
  in nuclear magnetons)

  Atom         1           2           3           4           5           6           7           8           9
 IAtWgt=         209         209         209         118         118         209          74          74          74
 AtmWgt= 208.9804000 208.9804000 208.9804000 117.9018000 117.9018000 208.9804000  73.9211788  73.9211788  73.9211788
 NucSpn=           9           9           9           0           0           9           0           0           0
 AtZEff=   0.0000000   0.0000000   0.0000000   0.0000000   0.0000000   0.0000000   0.0000000   0.0000000   0.0000000
 NQMom=  -51.6000000 -51.6000000 -51.6000000   0.0000000   0.0000000 -51.6000000   0.0000000   0.0000000   0.0000000
 NMagM=    4.1106000   4.1106000   4.1106000   0.0000000   0.0000000   4.1106000   0.0000000   0.0000000   0.0000000
 AtZNuc=  83.0000000  83.0000000  83.0000000  50.0000000  50.0000000  83.0000000  32.0000000  32.0000000  32.0000000
 Leave Link  101 at Tue Mar  6 11:56:42 2018, MaxMem=   536870912 cpu:         0.3
 (Enter /share/apps//mg09/l103.exe)

 GradGradGradGradGradGradGradGradGradGradGradGradGradGradGradGradGradGrad
 Berny optimization.
 Initialization pass.
 No Z-matrix variables, so optimization will use Cartesian coordinates.
 Trust Radius=3.00D-01 FncErr=1.00D-07 GrdErr=1.00D-06
 Number of steps in this run=    100 maximum allowed number of steps=    100.
 GradGradGradGradGradGradGradGradGradGradGradGradGradGradGradGradGradGrad

 Leave Link  103 at Tue Mar  6 11:57:12 2018, MaxMem=   536870912 cpu:         0.1
 (Enter /share/apps//mg09/l202.exe)
 ---------------------------------------------------------------------------------------------------
                            Z-MATRIX (ANGSTROMS AND DEGREES)
   CD    Cent   Atom    N1       Length/X        N2       Alpha/Y        N3        Beta/Z          J
 ---------------------------------------------------------------------------------------------------
      1      1  Bi       0   1.949003         -1.531917          0.631682
      2      2  Bi       0  -1.938877          0.967230          1.096749
      3      3  Bi       0   1.936934          0.968013         -1.100254
      4      4  Sn       0  -1.059098          1.013800         -2.137313
      5      5  Sn       0   1.056281          1.015362          2.138739
      6      6  Bi       0  -1.946734         -1.534989         -0.630489
      7      7  Ge       0   0.611409         -1.509671         -1.966762
      8      8  Ge       0  -0.608433         -1.508367          1.969041
      9      9  Ge       0   0.000581          2.782728          0.001488
 ---------------------------------------------------------------------------------------------------
                         Z-Matrix orientation:                         
 ---------------------------------------------------------------------
 Center     Atomic      Atomic             Coordinates (Angstroms)
 Number     Number       Type             X           Y           Z
 ---------------------------------------------------------------------
      1         83           0        1.949003   -1.531917    0.631682
      2         83           0       -1.938877    0.967230    1.096749
      3         83           0        1.936934    0.968013   -1.100254
      4         50           0       -1.059098    1.013800   -2.137313
      5         50           0        1.056281    1.015362    2.138739
      6         83           0       -1.946734   -1.534989   -0.630489
      7         32           0        0.611409   -1.509671   -1.966762
      8         32           0       -0.608433   -1.508367    1.969041
      9         32           0        0.000581    2.782728    0.001488
 ---------------------------------------------------------------------
                    Distance matrix (angstroms):
                    1          2          3          4          5
     1  Bi   0.000000
     2  Bi   4.645173   0.000000
     3  Bi   3.041282   4.455192   0.000000
     4  Sn   4.816293   3.351915   3.170772   0.000000
     5  Sn   3.091408   3.171598   3.356913   4.770687   0.000000
     6  Bi   4.095101   3.040479   4.644198   3.091075   4.815705
     7  Ge   2.922595   4.692984   2.940539   3.031103   4.840335
     8  Ge   2.886098   2.942712   4.693818   4.840100   3.028082
     9  Ge   4.775945   2.873522   2.873411   2.970942   2.967478
                    6          7          8          9
     6  Bi   0.000000
     7  Ge   2.886237   0.000000
     8  Ge   2.923921   4.120505   0.000000
     9  Ge   4.778505   4.761492   4.759796   0.000000
 Stoichiometry    Bi4Ge3Sn2
 Framework group  C1[X(Bi4Ge3Sn2)]
 Deg. of freedom    21
 Full point group                 C1      NOp   1
 Largest Abelian subgroup         C1      NOp   1
 Largest concise Abelian subgroup C1      NOp   1
                         Standard orientation:                         
 ---------------------------------------------------------------------
 Center     Atomic      Atomic             Coordinates (Angstroms)
 Number     Number       Type             X           Y           Z
 ---------------------------------------------------------------------
      1         83           0        1.949003   -1.531918    0.631682
      2         83           0       -1.938877    0.967230    1.096749
      3         83           0        1.936934    0.968012   -1.100254
      4         50           0       -1.059098    1.013800   -2.137313
      5         50           0        1.056281    1.015362    2.138739
      6         83           0       -1.946734   -1.534989   -0.630489
      7         32           0        0.611409   -1.509671   -1.966762
      8         32           0       -0.608433   -1.508367    1.969041
      9         32           0        0.000581    2.782728    0.001488
 ---------------------------------------------------------------------
 Rotational constants (GHZ):      0.1042729      0.0872018      0.0842241
 Leave Link  202 at Tue Mar  6 11:57:17 2018, MaxMem=   536870912 cpu:         0.0
 (Enter /share/apps//mg09/l301.exe)
 Standard basis: def2TZVP (5D, 7F)
 Ernie: Thresh=  0.10000D-02 Tol=  0.10000D-05 Strict=F.
 There are   519 symmetry adapted cartesian basis functions of A   symmetry.
 There are   444 symmetry adapted basis functions of A   symmetry.
   444 basis functions,   963 primitive gaussians,   519 cartesian basis functions
   116 alpha electrons      116 beta electrons
       nuclear repulsion energy      3513.7177957749 Hartrees.
 IExCor= 1009 DFT=T Ex+Corr=PBE1PBE ExCW=0 ScaHFX=  0.250000
 ScaDFX=  0.750000  0.750000  1.000000  1.000000 ScalE2=  1.000000  1.000000
 IRadAn=      0 IRanWt=     -1 IRanGd=            0 ICorTp=0 IEmpDi=  4
 NAtoms=    9 NActive=    9 NUniq=    9 SFac= 1.00D+00 NAtFMM=   60 NAOKFM=F Big=F
 Integral buffers will be    131072 words long.
 Raffenetti 2 integral format.
 Two-electron integral symmetry is turned on.
 Leave Link  301 at Tue Mar  6 11:57:27 2018, MaxMem=   536870912 cpu:         0.3
 (Enter /share/apps//mg09/l302.exe)
 NPDir=0 NMtPBC=     1 NCelOv=     1 NCel=       1 NClECP=     1 NCelD=      1
         NCelK=      1 NCelE2=     1 NClLst=     1 CellRange=     0.0.
 One-electron integrals computed using PRISM.
   1 Symmetry operations used in ECPInt.
 ECPInt:  NShTT=   10440 NPrTT=   41973 LenC2=    9658 LenP2D=   27486.
 LDataN:  DoStor=T MaxTD1= 8 Len=  415
 NBasis=   444 RedAO= T EigKep=  1.69D-03  NBF=   444
 NBsUse=   444 1.00D-06 EigRej= -1.00D+00 NBFU=   444
 Precomputing XC quadrature grid using
 IXCGrd= 4 IRadAn=           0 IRanWt=          -1 IRanGd=           0 AccXCQ= 0.00D+00.
 Defaulting to unpruned grid for atomic number  83.
 Defaulting to unpruned grid for atomic number  50.
 Generated NRdTot=       0 NPtTot=           0 NUsed=           0 NTot=          32
 NSgBfM=   504   504   504   504   504 MxSgAt=     9 MxSgA2=     9.
 Leave Link  302 at Tue Mar  6 11:57:37 2018, MaxMem=   536870912 cpu:        25.4
 (Enter /share/apps//mg09/l303.exe)
 DipDrv:  MaxL=1.
 Leave Link  303 at Tue Mar  6 11:57:48 2018, MaxMem=   536870912 cpu:         0.2
 (Enter /share/apps//mg09/l401.exe)
 ExpMin= 4.62D-02 ExpMax= 4.66D+05 ExpMxC= 4.50D+03 IAcc=2 IRadAn=         4 AccDes= 0.00D+00
 Harris functional with IExCor= 1009 and IRadAn=       4 diagonalized for initial guess.
 HarFok:  IExCor= 1009 AccDes= 0.00D+00 IRadAn=         4 IDoV= 1 UseB2=F ITyADJ=14
 ICtDFT=  3500011 ScaDFX=  1.000000  1.000000  1.000000  1.000000
 Defaulting to unpruned grid for atomic number  83.
 Defaulting to unpruned grid for atomic number  83.
 Defaulting to unpruned grid for atomic number  83.
 Defaulting to unpruned grid for atomic number  83.
 FoFCou: FMM=F IPFlag=           0 FMFlag=      100000 FMFlg1=           0
         NFxFlg=           0 DoJE=T BraDBF=F KetDBF=T FulRan=T
         wScrn=  0.000000 ICntrl=     500 IOpCl=  0 I1Cent=   200000004 NGrid=           0
         NMat0=    1 NMatS0=      1 NMatT0=    0 NMatD0=    1 NMtDS0=    0 NMtDT0=    0
 Petite list used in FoFCou.
 Harris En= -7518.59885541012    
 JPrj=0 DoOrth=F DoCkMO=F.
 Leave Link  401 at Tue Mar  6 11:57:58 2018, MaxMem=   536870912 cpu:        10.0
 (Enter /share/apps//mg09/l502.exe)
 Closed shell SCF:
 Using DIIS extrapolation, IDIIS=  1040.
 Integral symmetry usage will be decided dynamically.
 IVT=     1410107 IEndB=     1410107 NGot=   536870912 MDV=   536322046
 LenX=   536322046 LenY=   536052166
 Requested convergence on RMS density matrix=1.00D-08 within 768 cycles.
 Requested convergence on MAX density matrix=1.00D-06.
 Requested convergence on             energy=1.00D-06.
 No special actions if energy rises.
 Fock matrices will be formed incrementally for  20 cycles.

 Cycle   1  Pass 1  IDiag  1:
 FoFJK:  IHMeth= 1 ICntrl=       0 DoSepK=F KAlg= 0 I1Cent=   0 FoldK=F
 IRaf= 880000000 NMat=   1 IRICut=       1 DoRegI=T DoRafI=F ISym2E= 0.
 FoFCou: FMM=F IPFlag=           0 FMFlag=      100000 FMFlg1=           0
         NFxFlg=           0 DoJE=F BraDBF=F KetDBF=F FulRan=T
         wScrn=  0.000000 ICntrl=       0 IOpCl=  0 I1Cent=           0 NGrid=           0
         NMat0=    1 NMatS0=      1 NMatT0=    0 NMatD0=    1 NMtDS0=    0 NMtDT0=    0
 Symmetry not used in FoFCou.
 Defaulting to unpruned grid for atomic number  83.
 Defaulting to unpruned grid for atomic number  83.
 Defaulting to unpruned grid for atomic number  83.
 Defaulting to unpruned grid for atomic number  83.
 E= -7517.31499799803    
 DIIS: error= 4.25D-02 at cycle   1 NSaved=   1.
 NSaved= 1 IEnMin= 1 EnMin= -7517.31499799803     IErMin= 1 ErrMin= 4.25D-02
 ErrMax= 4.25D-02  0.00D+00 EMaxC= 1.00D-01 BMatC= 1.41D+00 BMatP= 1.41D+00
 IDIUse=3 WtCom= 5.75D-01 WtEn= 4.25D-01
 Coeff-Com:  0.100D+01
 Coeff-En:   0.100D+01
 Coeff:      0.100D+01
 Gap=     0.126 Goal=   None    Shift=    0.000
 GapD=    0.126 DampG=1.000 DampE=0.500 DampFc=0.5000 IDamp=-1.
 Damping current iteration by 5.00D-01
 RMSDP=4.23D-03 MaxDP=1.78D-01              OVMax= 2.78D-01

 Cycle   2  Pass 1  IDiag  1:
 RMSU=  2.11D-03    CP:  1.00D+00
 E= -7517.49186946161     Delta-E=       -0.176871463580 Rises=F Damp=T
 DIIS: error= 1.19D-02 at cycle   2 NSaved=   2.
 NSaved= 2 IEnMin= 2 EnMin= -7517.49186946161     IErMin= 2 ErrMin= 1.19D-02
 ErrMax= 1.19D-02  0.00D+00 EMaxC= 1.00D-01 BMatC= 1.25D-01 BMatP= 1.41D+00
 IDIUse=3 WtCom= 8.81D-01 WtEn= 1.19D-01
 Coeff-Com:  0.607D-02 0.994D+00
 Coeff-En:   0.258D+00 0.742D+00
 Coeff:      0.360D-01 0.964D+00
 Gap=     0.165 Goal=   None    Shift=    0.000
 RMSDP=1.55D-03 MaxDP=1.23D-01 DE=-1.77D-01 OVMax= 2.83D-01

 Cycle   3  Pass 1  IDiag  1:
 RMSU=  1.36D-03    CP:  1.01D+00  6.51D-01
 E= -7517.63015153759     Delta-E=       -0.138282075977 Rises=F Damp=F
 DIIS: error= 1.40D-02 at cycle   3 NSaved=   3.
 NSaved= 3 IEnMin= 3 EnMin= -7517.63015153759     IErMin= 2 ErrMin= 1.19D-02
 ErrMax= 1.40D-02  0.00D+00 EMaxC= 1.00D-01 BMatC= 2.06D-01 BMatP= 1.25D-01
 IDIUse=2 WtCom= 0.00D+00 WtEn= 1.00D+00
 Coeff-En:   0.000D+00 0.256D+00 0.744D+00
 Coeff:      0.000D+00 0.256D+00 0.744D+00
 Gap=     0.167 Goal=   None    Shift=    0.000
 RMSDP=2.59D-03 MaxDP=1.43D-01 DE=-1.38D-01 OVMax= 2.76D-01

 Cycle   4  Pass 1  IDiag  1:
 RMSU=  1.14D-03    CP:  9.96D-01  1.24D+00 -4.21D-01
 E= -7517.28797922398     Delta-E=        0.342172313611 Rises=F Damp=F
 DIIS: error= 2.01D-02 at cycle   4 NSaved=   4.
 NSaved= 4 IEnMin= 3 EnMin= -7517.63015153759     IErMin= 2 ErrMin= 1.19D-02
 ErrMax= 2.01D-02  0.00D+00 EMaxC= 1.00D-01 BMatC= 4.83D-01 BMatP= 1.25D-01
 IDIUse=2 WtCom= 0.00D+00 WtEn= 1.00D+00
 Coeff-En:   0.000D+00 0.000D+00 0.680D+00 0.320D+00
 Coeff:      0.000D+00 0.000D+00 0.680D+00 0.320D+00
 Gap=     0.142 Goal=   None    Shift=    0.000
 RMSDP=1.56D-03 MaxDP=5.21D-02 DE= 3.42D-01 OVMax= 1.98D-01

 Cycle   5  Pass 1  IDiag  1:
 RMSU=  6.01D-04    CP:  1.00D+00  9.94D-01  2.39D-01  1.26D-01
 E= -7517.76476690017     Delta-E=       -0.476787676194 Rises=F Damp=F
 DIIS: error= 8.00D-03 at cycle   5 NSaved=   5.
 NSaved= 5 IEnMin= 5 EnMin= -7517.76476690017     IErMin= 5 ErrMin= 8.00D-03
 ErrMax= 8.00D-03  0.00D+00 EMaxC= 1.00D-01 BMatC= 6.21D-02 BMatP= 1.25D-01
 IDIUse=3 WtCom= 9.20D-01 WtEn= 8.00D-02
 Coeff-Com:  0.784D-02 0.125D-01 0.441D+00 0.216D+00 0.323D+00
 Coeff-En:   0.000D+00 0.000D+00 0.212D+00 0.000D+00 0.788D+00
 Coeff:      0.721D-02 0.115D-01 0.422D+00 0.199D+00 0.360D+00
 Gap=     0.128 Goal=   None    Shift=    0.000
 RMSDP=6.27D-04 MaxDP=2.91D-02 DE=-4.77D-01 OVMax= 6.87D-02

 Cycle   6  Pass 1  IDiag  1:
 RMSU=  2.06D-04    CP:  1.00D+00  8.58D-01  3.66D-01  3.43D-01  3.18D-01
 E= -7517.81162429254     Delta-E=       -0.046857392372 Rises=F Damp=F
 DIIS: error= 1.95D-03 at cycle   6 NSaved=   6.
 NSaved= 6 IEnMin= 6 EnMin= -7517.81162429254     IErMin= 6 ErrMin= 1.95D-03
 ErrMax= 1.95D-03  0.00D+00 EMaxC= 1.00D-01 BMatC= 4.29D-03 BMatP= 6.21D-02
 IDIUse=3 WtCom= 9.81D-01 WtEn= 1.95D-02
 Coeff-Com:  0.307D-02-0.106D-01 0.916D-01 0.112D-02 0.248D+00 0.667D+00
 Coeff-En:   0.000D+00 0.000D+00 0.000D+00 0.000D+00 0.823D-01 0.918D+00
 Coeff:      0.301D-02-0.104D-01 0.898D-01 0.110D-02 0.245D+00 0.672D+00
 Gap=     0.126 Goal=   None    Shift=    0.000
 RMSDP=1.78D-04 MaxDP=7.94D-03 DE=-4.69D-02 OVMax= 2.53D-02

 Cycle   7  Pass 1  IDiag  1:
 RMSU=  7.24D-05    CP:  1.00D+00  8.70D-01  4.11D-01  2.76D-01  4.93D-01
                    CP:  6.51D-01
 E= -7517.81653515135     Delta-E=       -0.004910858803 Rises=F Damp=F
 DIIS: error= 4.48D-04 at cycle   7 NSaved=   7.
 NSaved= 7 IEnMin= 7 EnMin= -7517.81653515135     IErMin= 7 ErrMin= 4.48D-04
 ErrMax= 4.48D-04  0.00D+00 EMaxC= 1.00D-01 BMatC= 2.03D-04 BMatP= 4.29D-03
 IDIUse=3 WtCom= 9.96D-01 WtEn= 4.48D-03
 Coeff-Com:  0.844D-03-0.451D-02 0.352D-01-0.932D-02 0.128D+00 0.410D+00
 Coeff-Com:  0.440D+00
 Coeff-En:   0.000D+00 0.000D+00 0.000D+00 0.000D+00 0.000D+00 0.000D+00
 Coeff-En:   0.100D+01
 Coeff:      0.841D-03-0.449D-02 0.350D-01-0.928D-02 0.127D+00 0.408D+00
 Coeff:      0.443D+00
 Gap=     0.126 Goal=   None    Shift=    0.000
 RMSDP=4.79D-05 MaxDP=2.51D-03 DE=-4.91D-03 OVMax= 4.40D-03

 Cycle   8  Pass 1  IDiag  1:
 RMSU=  1.86D-05    CP:  1.00D+00  8.72D-01  4.03D-01  2.70D-01  4.87D-01
                    CP:  7.34D-01  4.70D-01
 E= -7517.81675363066     Delta-E=       -0.000218479312 Rises=F Damp=F
 DIIS: error= 1.24D-04 at cycle   8 NSaved=   8.
 NSaved= 8 IEnMin= 8 EnMin= -7517.81675363066     IErMin= 8 ErrMin= 1.24D-04
 ErrMax= 1.24D-04  0.00D+00 EMaxC= 1.00D-01 BMatC= 1.19D-05 BMatP= 2.03D-04
 IDIUse=3 WtCom= 9.99D-01 WtEn= 1.24D-03
 Coeff-Com: -0.103D-03-0.426D-04 0.672D-02-0.636D-02 0.352D-01 0.133D+00
 Coeff-Com:  0.225D+00 0.606D+00
 Coeff-En:   0.000D+00 0.000D+00 0.000D+00 0.000D+00 0.000D+00 0.000D+00
 Coeff-En:   0.000D+00 0.100D+01
 Coeff:     -0.102D-03-0.425D-04 0.672D-02-0.635D-02 0.352D-01 0.133D+00
 Coeff:      0.225D+00 0.607D+00
 Gap=     0.126 Goal=   None    Shift=    0.000
 RMSDP=1.01D-05 MaxDP=8.25D-04 DE=-2.18D-04 OVMax= 9.46D-04

 Cycle   9  Pass 1  IDiag  1:
 RMSU=  6.46D-06    CP:  1.00D+00  8.70D-01  4.02D-01  2.72D-01  4.89D-01
                    CP:  7.35D-01  5.38D-01  7.91D-01
 E= -7517.81676221681     Delta-E=       -0.000008586156 Rises=F Damp=F
 DIIS: error= 2.83D-05 at cycle   9 NSaved=   9.
 NSaved= 9 IEnMin= 9 EnMin= -7517.81676221681     IErMin= 9 ErrMin= 2.83D-05
 ErrMax= 2.83D-05  0.00D+00 EMaxC= 1.00D-01 BMatC= 1.47D-06 BMatP= 1.19D-05
 IDIUse=1 WtCom= 1.00D+00 WtEn= 0.00D+00
 Coeff-Com: -0.169D-04-0.565D-05 0.149D-02-0.248D-02 0.892D-02 0.351D-01
 Coeff-Com:  0.805D-01 0.312D+00 0.564D+00
 Coeff:     -0.169D-04-0.565D-05 0.149D-02-0.248D-02 0.892D-02 0.351D-01
 Coeff:      0.805D-01 0.312D+00 0.564D+00
 Gap=     0.126 Goal=   None    Shift=    0.000
 RMSDP=5.19D-06 MaxDP=4.06D-04 DE=-8.59D-06 OVMax= 6.38D-04

 Cycle  10  Pass 1  IDiag  1:
 RMSU=  3.83D-06    CP:  1.00D+00  8.70D-01  4.03D-01  2.71D-01  4.90D-01
                    CP:  7.36D-01  5.45D-01  8.55D-01  5.83D-01
 E= -7517.81676273711     Delta-E=       -0.000000520291 Rises=F Damp=F
 DIIS: error= 3.66D-05 at cycle  10 NSaved=  10.
 NSaved=10 IEnMin=10 EnMin= -7517.81676273711     IErMin= 9 ErrMin= 2.83D-05
 ErrMax= 3.66D-05  0.00D+00 EMaxC= 1.00D-01 BMatC= 9.21D-07 BMatP= 1.47D-06
 IDIUse=1 WtCom= 1.00D+00 WtEn= 0.00D+00
 Coeff-Com:  0.114D-04-0.409D-04 0.240D-03-0.997D-03 0.161D-02 0.686D-02
 Coeff-Com:  0.305D-01 0.159D+00 0.464D+00 0.339D+00
 Coeff:      0.114D-04-0.409D-04 0.240D-03-0.997D-03 0.161D-02 0.686D-02
 Coeff:      0.305D-01 0.159D+00 0.464D+00 0.339D+00
 Gap=     0.126 Goal=   None    Shift=    0.000
 RMSDP=3.00D-06 MaxDP=1.37D-04 DE=-5.20D-07 OVMax= 3.67D-04

 Cycle  11  Pass 1  IDiag  1:
 RMSU=  1.52D-06    CP:  1.00D+00  8.70D-01  4.03D-01  2.71D-01  4.90D-01
                    CP:  7.36D-01  5.47D-01  8.56D-01  7.64D-01  4.05D-01
 E= -7517.81676387178     Delta-E=       -0.000001134676 Rises=F Damp=F
 DIIS: error= 9.04D-06 at cycle  11 NSaved=  11.
 NSaved=11 IEnMin=11 EnMin= -7517.81676387178     IErMin=11 ErrMin= 9.04D-06
 ErrMax= 9.04D-06  0.00D+00 EMaxC= 1.00D-01 BMatC= 8.05D-08 BMatP= 9.21D-07
 IDIUse=1 WtCom= 1.00D+00 WtEn= 0.00D+00
 Coeff-Com:  0.175D-04-0.509D-04-0.189D-03-0.900D-04-0.123D-02-0.430D-02
 Coeff-Com:  0.259D-02 0.380D-01 0.201D+00 0.247D+00 0.517D+00
 Coeff:      0.175D-04-0.509D-04-0.189D-03-0.900D-04-0.123D-02-0.430D-02
 Coeff:      0.259D-02 0.380D-01 0.201D+00 0.247D+00 0.517D+00
 Gap=     0.126 Goal=   None    Shift=    0.000
 RMSDP=9.15D-07 MaxDP=5.21D-05 DE=-1.13D-06 OVMax= 1.04D-04

 Cycle  12  Pass 1  IDiag  1:
 RMSU=  4.79D-07    CP:  1.00D+00  8.70D-01  4.03D-01  2.71D-01  4.91D-01
                    CP:  7.36D-01  5.47D-01  8.61D-01  7.87D-01  5.15D-01
                    CP:  5.89D-01
 E= -7517.81676396484     Delta-E=       -0.000000093061 Rises=F Damp=F
 DIIS: error= 2.24D-06 at cycle  12 NSaved=  12.
 NSaved=12 IEnMin=12 EnMin= -7517.81676396484     IErMin=12 ErrMin= 2.24D-06
 ErrMax= 2.24D-06  0.00D+00 EMaxC= 1.00D-01 BMatC= 9.39D-09 BMatP= 8.05D-08
 IDIUse=1 WtCom= 1.00D+00 WtEn= 0.00D+00
 Coeff-Com:  0.174D-04-0.456D-04-0.190D-03 0.658D-04-0.111D-02-0.392D-02
 Coeff-Com: -0.217D-02 0.637D-02 0.788D-01 0.120D+00 0.328D+00 0.473D+00
 Coeff:      0.174D-04-0.456D-04-0.190D-03 0.658D-04-0.111D-02-0.392D-02
 Coeff:     -0.217D-02 0.637D-02 0.788D-01 0.120D+00 0.328D+00 0.473D+00
 Gap=     0.126 Goal=   None    Shift=    0.000
 RMSDP=3.22D-07 MaxDP=1.79D-05 DE=-9.31D-08 OVMax= 3.49D-05

 Cycle  13  Pass 1  IDiag  1:
 RMSU=  2.09D-07    CP:  1.00D+00  8.70D-01  4.03D-01  2.71D-01  4.91D-01
                    CP:  7.36D-01  5.48D-01  8.63D-01  7.86D-01  5.25D-01
                    CP:  6.85D-01  6.88D-01
 E= -7517.81676397312     Delta-E=       -0.000000008280 Rises=F Damp=F
 DIIS: error= 1.55D-06 at cycle  13 NSaved=  13.
 NSaved=13 IEnMin=13 EnMin= -7517.81676397312     IErMin=13 ErrMin= 1.55D-06
 ErrMax= 1.55D-06  0.00D+00 EMaxC= 1.00D-01 BMatC= 1.67D-09 BMatP= 9.39D-09
 IDIUse=1 WtCom= 1.00D+00 WtEn= 0.00D+00
 Coeff-Com:  0.101D-04-0.251D-04-0.105D-03 0.489D-04-0.562D-03-0.191D-02
 Coeff-Com: -0.170D-02-0.329D-03 0.257D-01 0.479D-01 0.154D+00 0.321D+00
 Coeff-Com:  0.456D+00
 Coeff:      0.101D-04-0.251D-04-0.105D-03 0.489D-04-0.562D-03-0.191D-02
 Coeff:     -0.170D-02-0.329D-03 0.257D-01 0.479D-01 0.154D+00 0.321D+00
 Coeff:      0.456D+00
 Gap=     0.126 Goal=   None    Shift=    0.000
 RMSDP=1.80D-07 MaxDP=8.37D-06 DE=-8.28D-09 OVMax= 2.00D-05

 Cycle  14  Pass 1  IDiag  1:
 RMSU=  1.18D-07    CP:  1.00D+00  8.70D-01  4.03D-01  2.71D-01  4.91D-01
                    CP:  7.36D-01  5.49D-01  8.64D-01  7.89D-01  5.25D-01
                    CP:  7.01D-01  8.02D-01  4.51D-01
 E= -7517.81676397437     Delta-E=       -0.000000001246 Rises=F Damp=F
 DIIS: error= 1.07D-06 at cycle  14 NSaved=  14.
 NSaved=14 IEnMin=14 EnMin= -7517.81676397437     IErMin=14 ErrMin= 1.07D-06
 ErrMax= 1.07D-06  0.00D+00 EMaxC= 1.00D-01 BMatC= 8.38D-10 BMatP= 1.67D-09
 IDIUse=1 WtCom= 1.00D+00 WtEn= 0.00D+00
 Coeff-Com:  0.210D-05-0.419D-05-0.227D-04 0.155D-04-0.682D-04-0.135D-03
 Coeff-Com: -0.716D-03-0.258D-02-0.763D-02-0.355D-02 0.127D-01 0.109D+00
 Coeff-Com:  0.426D+00 0.467D+00
 Coeff:      0.210D-05-0.419D-05-0.227D-04 0.155D-04-0.682D-04-0.135D-03
 Coeff:     -0.716D-03-0.258D-02-0.763D-02-0.355D-02 0.127D-01 0.109D+00
 Coeff:      0.426D+00 0.467D+00
 Gap=     0.126 Goal=   None    Shift=    0.000
 RMSDP=8.78D-08 MaxDP=4.31D-06 DE=-1.25D-09 OVMax= 1.01D-05

 Cycle  15  Pass 1  IDiag  1:
 RMSU=  3.72D-08    CP:  1.00D+00  8.70D-01  4.03D-01  2.71D-01  4.91D-01
                    CP:  7.36D-01  5.49D-01  8.65D-01  7.90D-01  5.29D-01
                    CP:  7.04D-01  8.09D-01  7.30D-01  6.09D-01
 E= -7517.81676397529     Delta-E=       -0.000000000919 Rises=F Damp=F
 DIIS: error= 1.32D-07 at cycle  15 NSaved=  15.
 NSaved=15 IEnMin=15 EnMin= -7517.81676397529     IErMin=15 ErrMin= 1.32D-07
 ErrMax= 1.32D-07  0.00D+00 EMaxC= 1.00D-01 BMatC= 2.47D-11 BMatP= 8.38D-10
 IDIUse=1 WtCom= 1.00D+00 WtEn= 0.00D+00
 Coeff-Com: -0.590D-06 0.181D-05-0.985D-06 0.176D-05 0.205D-04 0.108D-03
 Coeff-Com: -0.241D-03-0.927D-03-0.517D-02-0.651D-02-0.131D-01 0.758D-02
 Coeff-Com:  0.138D+00 0.214D+00 0.666D+00
 Coeff:     -0.590D-06 0.181D-05-0.985D-06 0.176D-05 0.205D-04 0.108D-03
 Coeff:     -0.241D-03-0.927D-03-0.517D-02-0.651D-02-0.131D-01 0.758D-02
 Coeff:      0.138D+00 0.214D+00 0.666D+00
 Gap=     0.126 Goal=   None    Shift=    0.000
 RMSDP=1.99D-08 MaxDP=1.22D-06 DE=-9.19D-10 OVMax= 2.35D-06

 Cycle  16  Pass 1  IDiag  1:
 RMSU=  1.05D-08    CP:  1.00D+00  8.70D-01  4.03D-01  2.71D-01  4.91D-01
                    CP:  7.36D-01  5.49D-01  8.65D-01  7.91D-01  5.30D-01
                    CP:  7.07D-01  8.22D-01  7.44D-01  6.79D-01  9.39D-01
 E= -7517.81676397539     Delta-E=       -0.000000000106 Rises=F Damp=F
 DIIS: error= 4.06D-08 at cycle  16 NSaved=  16.
 NSaved=16 IEnMin=16 EnMin= -7517.81676397539     IErMin=16 ErrMin= 4.06D-08
 ErrMax= 4.06D-08  0.00D+00 EMaxC= 1.00D-01 BMatC= 2.44D-12 BMatP= 2.47D-11
 IDIUse=1 WtCom= 1.00D+00 WtEn= 0.00D+00
 Coeff-Com: -0.567D-06 0.152D-05 0.218D-05-0.749D-06 0.181D-04 0.695D-04
 Coeff-Com: -0.451D-04-0.258D-03-0.176D-02-0.268D-02-0.723D-02-0.713D-02
 Coeff-Com:  0.269D-01 0.598D-01 0.314D+00 0.618D+00
 Coeff:     -0.567D-06 0.152D-05 0.218D-05-0.749D-06 0.181D-04 0.695D-04
 Coeff:     -0.451D-04-0.258D-03-0.176D-02-0.268D-02-0.723D-02-0.713D-02
 Coeff:      0.269D-01 0.598D-01 0.314D+00 0.618D+00
 Gap=     0.126 Goal=   None    Shift=    0.000
 RMSDP=6.38D-09 MaxDP=2.28D-07 DE=-1.06D-10 OVMax= 1.07D-06

 SCF Done:  E(RPBE1PBE) =  -7517.81676398     A.U. after   16 cycles
            NFock= 16  Conv=0.64D-08     -V/T= 2.1285
 KE= 6.661991536144D+03 PE=-2.461883845334D+04 EE= 6.925312357450D+03
 Leave Link  502 at Tue Mar  6 12:10:00 2018, MaxMem=   536870912 cpu:      2853.5
 (Enter /share/apps//mg09/l601.exe)
 Copying SCF densities to generalized density rwf, IOpCl= 0 IROHF=0.

 **********************************************************************

            Population analysis using the SCF density.

 **********************************************************************

 Orbital symmetries:
       Occupied  (A) (A) (A) (A) (A) (A) (A) (A) (A) (A) (A) (A)
                 (A) (A) (A) (A) (A) (A) (A) (A) (A) (A) (A) (A)
                 (A) (A) (A) (A) (A) (A) (A) (A) (A) (A) (A) (A)
                 (A) (A) (A) (A) (A) (A) (A) (A) (A) (A) (A) (A)
                 (A) (A) (A) (A) (A) (A) (A) (A) (A) (A) (A) (A)
                 (A) (A) (A) (A) (A) (A) (A) (A) (A) (A) (A) (A)
                 (A) (A) (A) (A) (A) (A) (A) (A) (A) (A) (A) (A)
                 (A) (A) (A) (A) (A) (A) (A) (A) (A) (A) (A) (A)
                 (A) (A) (A) (A) (A) (A) (A) (A) (A) (A) (A) (A)
                 (A) (A) (A) (A) (A) (A) (A) (A)
       Virtual   (A) (A) (A) (A) (A) (A) (A) (A) (A) (A) (A) (A)
                 (A) (A) (A) (A) (A) (A) (A) (A) (A) (A) (A) (A)
                 (A) (A) (A) (A) (A) (A) (A) (A) (A) (A) (A) (A)
                 (A) (A) (A) (A) (A) (A) (A) (A) (A) (A) (A) (A)
                 (A) (A) (A) (A) (A) (A) (A) (A) (A) (A) (A) (A)
                 (A) (A) (A) (A) (A) (A) (A) (A) (A) (A) (A) (A)
                 (A) (A) (A) (A) (A) (A) (A) (A) (A) (A) (A) (A)
                 (A) (A) (A) (A) (A) (A) (A) (A) (A) (A) (A) (A)
                 (A) (A) (A) (A) (A) (A) (A) (A) (A) (A) (A) (A)
                 (A) (A) (A) (A) (A) (A) (A) (A) (A) (A) (A) (A)
                 (A) (A) (A) (A) (A) (A) (A) (A) (A) (A) (A) (A)
                 (A) (A) (A) (A) (A) (A) (A) (A) (A) (A) (A) (A)
                 (A) (A) (A) (A) (A) (A) (A) (A) (A) (A) (A) (A)
                 (A) (A) (A) (A) (A) (A) (A) (A) (A) (A) (A) (A)
                 (A) (A) (A) (A) (A) (A) (A) (A) (A) (A) (A) (A)
                 (A) (A) (A) (A) (A) (A) (A) (A) (A) (A) (A) (A)
                 (A) (A) (A) (A) (A) (A) (A) (A) (A) (A) (A) (A)
                 (A) (A) (A) (A) (A) (A) (A) (A) (A) (A) (A) (A)
                 (A) (A) (A) (A) (A) (A) (A) (A) (A) (A) (A) (A)
                 (A) (A) (A) (A) (A) (A) (A) (A) (A) (A) (A) (A)
                 (A) (A) (A) (A) (A) (A) (A) (A) (A) (A) (A) (A)
                 (A) (A) (A) (A) (A) (A) (A) (A) (A) (A) (A) (A)
                 (A) (A) (A) (A) (A) (A) (A) (A) (A) (A) (A) (A)
                 (A) (A) (A) (A) (A) (A) (A) (A) (A) (A) (A) (A)
                 (A) (A) (A) (A) (A) (A) (A) (A) (A) (A) (A) (A)
                 (A) (A) (A) (A) (A) (A) (A) (A) (A) (A) (A) (A)
                 (A) (A) (A) (A) (A) (A) (A) (A) (A) (A) (A) (A)
                 (A) (A) (A) (A)
 The electronic state is 1-A.
 Alpha  occ. eigenvalues -- -399.09501-399.09500-399.09494 -49.91103 -49.91084
 Alpha  occ. eigenvalues --  -49.91083 -44.39180 -44.39157 -44.39157 -44.39147
 Alpha  occ. eigenvalues --  -44.39136 -44.39136 -44.39135 -44.39120 -44.39120
 Alpha  occ. eigenvalues --   -6.27612  -6.27587  -6.27586  -6.02143  -6.02139
 Alpha  occ. eigenvalues --   -6.01041  -6.01032  -5.13926  -5.13916  -4.43058
 Alpha  occ. eigenvalues --   -4.43013  -4.43013  -4.42938  -4.42933  -4.42932
 Alpha  occ. eigenvalues --   -4.42901  -4.42876  -4.42875  -3.74412  -3.74408
 Alpha  occ. eigenvalues --   -3.74290  -3.74286  -3.74148  -3.74143  -3.73371
 Alpha  occ. eigenvalues --   -3.73362  -3.73177  -3.73168  -3.72980  -3.72971
 Alpha  occ. eigenvalues --   -3.47171  -3.47162  -3.46991  -3.46980  -3.46963
 Alpha  occ. eigenvalues --   -3.46952  -1.22499  -1.22474  -1.22465  -1.22464
 Alpha  occ. eigenvalues --   -1.22450  -1.22442  -1.22441  -1.22406  -1.22405
 Alpha  occ. eigenvalues --   -1.22347  -1.22323  -1.22316  -1.22314  -1.22313
 Alpha  occ. eigenvalues --   -1.22307  -1.08308  -1.08300  -1.08077  -1.08071
 Alpha  occ. eigenvalues --   -1.07959  -1.07947  -1.07831  -1.07811  -1.07746
 Alpha  occ. eigenvalues --   -1.07722  -1.06981  -1.06972  -1.06875  -1.06867
 Alpha  occ. eigenvalues --   -1.06785  -1.06758  -1.06607  -1.06599  -1.06587
 Alpha  occ. eigenvalues --   -1.06532  -1.03320  -1.03310  -1.03291  -1.03275
 Alpha  occ. eigenvalues --   -1.03257  -1.03239  -1.03137  -1.03122  -1.03088
 Alpha  occ. eigenvalues --   -1.03077  -0.66459  -0.62726  -0.58720  -0.57595
 Alpha  occ. eigenvalues --   -0.48521  -0.47808  -0.44887  -0.42740  -0.40421
 Alpha  occ. eigenvalues --   -0.29056  -0.27385  -0.26581  -0.25794  -0.24796
 Alpha  occ. eigenvalues --   -0.24324  -0.23779  -0.22449  -0.21732  -0.21266
 Alpha  occ. eigenvalues --   -0.20129
 Alpha virt. eigenvalues --   -0.07550  -0.06974  -0.06865  -0.06225  -0.06216
 Alpha virt. eigenvalues --   -0.05640  -0.05396  -0.04808  -0.04548  -0.03503
 Alpha virt. eigenvalues --   -0.03449  -0.03023  -0.00646   0.04128   0.04553
 Alpha virt. eigenvalues --    0.05030   0.06407   0.08026   0.08753   0.08923
 Alpha virt. eigenvalues --    0.09088   0.09613   0.09676   0.09832   0.10370
 Alpha virt. eigenvalues --    0.11123   0.11561   0.11657   0.11961   0.12342
 Alpha virt. eigenvalues --    0.13955   0.15616   0.15729   0.16201   0.17389
 Alpha virt. eigenvalues --    0.17543   0.18042   0.19916   0.19930   0.20723
 Alpha virt. eigenvalues --    0.21252   0.21482   0.22454   0.23215   0.23540
 Alpha virt. eigenvalues --    0.25920   0.26859   0.27890   0.28484   0.29125
 Alpha virt. eigenvalues --    0.29756   0.30195   0.30473   0.30878   0.31050
 Alpha virt. eigenvalues --    0.31110   0.31525   0.31942   0.32867   0.32949
 Alpha virt. eigenvalues --    0.33550   0.34969   0.35957   0.37074   0.38392
 Alpha virt. eigenvalues --    0.39122   0.39151   0.40434   0.41005   0.41964
 Alpha virt. eigenvalues --    0.42252   0.43336   0.43426   0.44289   0.44574
 Alpha virt. eigenvalues --    0.45892   0.46423   0.46518   0.47549   0.47824
 Alpha virt. eigenvalues --    0.48958   0.50105   0.50397   0.51234   0.51488
 Alpha virt. eigenvalues --    0.52973   0.53027   0.54159   0.54327   0.56116
 Alpha virt. eigenvalues --    0.56185   0.57008   0.57189   0.58369   0.58609
 Alpha virt. eigenvalues --    0.59282   0.61317   0.61759   0.62583   0.62767
 Alpha virt. eigenvalues --    0.62831   0.63535   0.63955   0.63987   0.66759
 Alpha virt. eigenvalues --    0.66819   0.67364   0.67773   0.68401   0.70094
 Alpha virt. eigenvalues --    0.70178   0.72137   0.72228   0.73313   0.73350
 Alpha virt. eigenvalues --    0.74612   0.75879   0.76084   0.78519   0.79048
 Alpha virt. eigenvalues --    0.79445   0.79611   0.80423   0.81245   0.82350
 Alpha virt. eigenvalues --    0.83137   0.84190   0.84782   0.85458   0.87033
 Alpha virt. eigenvalues --    0.87424   0.87570   0.88969   0.89635   0.89715
 Alpha virt. eigenvalues --    0.90222   0.90659   0.92160   0.92473   0.93610
 Alpha virt. eigenvalues --    0.93845   0.95187   0.95669   0.96083   0.96115
 Alpha virt. eigenvalues --    0.97489   0.97668   0.98720   0.99799   1.00559
 Alpha virt. eigenvalues --    1.01040   1.04065   1.07641   1.08571   1.09191
 Alpha virt. eigenvalues --    1.09236   1.09739   1.10152   1.11748   1.12075
 Alpha virt. eigenvalues --    1.12513   1.14166   1.15572   1.16805   1.16895
 Alpha virt. eigenvalues --    1.18314   1.18916   1.19375   1.19995   1.20511
 Alpha virt. eigenvalues --    1.20533   1.21375   1.21896   1.22612   1.22738
 Alpha virt. eigenvalues --    1.23108   1.23857   1.24388   1.24525   1.24736
 Alpha virt. eigenvalues --    1.25516   1.25600   1.25898   1.26017   1.26237
 Alpha virt. eigenvalues --    1.26870   1.27909   1.27937   1.28436   1.29127
 Alpha virt. eigenvalues --    1.29483   1.29629   1.30687   1.31746   1.32838
 Alpha virt. eigenvalues --    1.35304   1.35532   1.37822   1.38820   1.39604
 Alpha virt. eigenvalues --    1.40974   1.42240   1.43185   1.43195   1.44319
 Alpha virt. eigenvalues --    1.45343   1.46490   1.46572   1.48242   1.48267
 Alpha virt. eigenvalues --    1.49203   1.49273   1.50418   1.51019   1.51961
 Alpha virt. eigenvalues --    1.52268   1.53491   1.54849   1.55274   1.57410
 Alpha virt. eigenvalues --    1.64854   1.70173   1.74082   2.08378   2.09059
 Alpha virt. eigenvalues --    2.10298   2.12123   2.12890   2.16438   2.16793
 Alpha virt. eigenvalues --    2.17515   2.17837   2.19798   2.20340   2.22203
 Alpha virt. eigenvalues --    2.22869   2.23461   2.24553   2.26037   2.26733
 Alpha virt. eigenvalues --    2.28226   2.28357   2.28950   2.29592   2.30693
 Alpha virt. eigenvalues --    2.34063   2.35423   2.35807   2.36713   2.38529
 Alpha virt. eigenvalues --    2.39716   2.40659   2.41363   2.44223   2.47265
 Alpha virt. eigenvalues --    2.49055   2.49922   2.51009   2.52409   2.55601
 Alpha virt. eigenvalues --    2.55700   2.60431   2.62031   2.62099   2.62996
 Alpha virt. eigenvalues --    2.69914   2.70589   2.70856   2.74183   2.76983
 Alpha virt. eigenvalues --    2.77584   2.78248   2.78310   2.79679   2.80033
 Alpha virt. eigenvalues --    2.81503   2.82391   2.86370   2.86372   2.89628
 Alpha virt. eigenvalues --    3.17495   3.25260   3.31912   3.36899   3.42356
 Alpha virt. eigenvalues --    3.43241   3.94780   3.96965   3.99002   4.00135
 Alpha virt. eigenvalues --    4.02542   4.03217   4.04238   4.05621   4.06483
 Alpha virt. eigenvalues --    5.24951   5.34707   5.37318  35.39041  35.43095
 Alpha virt. eigenvalues --   35.43781  35.44415  35.46018  35.47064  35.51137
 Alpha virt. eigenvalues --   35.52955  35.53739  35.56857  35.59586  35.63244
 Alpha virt. eigenvalues --   35.91897  35.93603  35.95278  36.07343  36.20417
 Alpha virt. eigenvalues --   36.21905  36.97068  36.97785  37.03776  37.05110
 Alpha virt. eigenvalues --   37.09073  37.15168 113.56943 113.58746 120.23327
 Alpha virt. eigenvalues --  120.23705 120.24494 120.26062
          Condensed to atoms (all electrons):
               1          2          3          4          5          6
     1  Bi  22.366870  -0.023396   0.165557  -0.020672   0.136749  -0.024892
     2  Bi  -0.023396  22.261448  -0.031680   0.074037   0.111159   0.165622
     3  Bi   0.165557  -0.031680  22.261467   0.111477   0.073223  -0.023467
     4  Sn  -0.020672   0.074037   0.111477  21.370770  -0.019230   0.136765
     5  Sn   0.136749   0.111159   0.073223  -0.019230  21.370455  -0.020712
     6  Bi  -0.024892   0.165622  -0.023467   0.136765  -0.020712  22.366810
     7  Ge   0.174484  -0.019079   0.145000   0.121004  -0.014627   0.192271
     8  Ge   0.192305   0.144620  -0.019062  -0.014614   0.121657   0.174291
     9  Ge  -0.015381   0.177038   0.177308   0.145575   0.146385  -0.015361
               7          8          9
     1  Bi   0.174484   0.192305  -0.015381
     2  Bi  -0.019079   0.144620   0.177038
     3  Bi   0.145000  -0.019062   0.177308
     4  Sn   0.121004  -0.014614   0.145575
     5  Sn  -0.014627   0.121657   0.146385
     6  Bi   0.192271   0.174291  -0.015361
     7  Ge  31.588014  -0.010496  -0.011282
     8  Ge  -0.010496  31.588008  -0.011322
     9  Ge  -0.011282  -0.011322  31.643654
 Mulliken charges:
               1
     1  Bi   0.048377
     2  Bi   0.140232
     3  Bi   0.140177
     4  Sn   0.094887
     5  Sn   0.094940
     6  Bi   0.048673
     7  Ge  -0.165288
     8  Ge  -0.165386
     9  Ge  -0.236612
 Sum of Mulliken charges =   0.00000
 Mulliken charges with hydrogens summed into heavy atoms:
               1
     1  Bi   0.048377
     2  Bi   0.140232
     3  Bi   0.140177
     4  Sn   0.094887
     5  Sn   0.094940
     6  Bi   0.048673
     7  Ge  -0.165288
     8  Ge  -0.165386
     9  Ge  -0.236612
 Electronic spatial extent (au):  <R**2>=           5961.3911
 Charge=              0.0000 electrons
 Dipole moment (field-independent basis, Debye):
    X=             -0.0049    Y=              0.2770    Z=             -0.0032  Tot=              0.2771
 Quadrupole moment (field-independent basis, Debye-Ang):
   XX=           -214.6741   YY=           -219.2489   ZZ=           -220.1437
   XY=              0.0017   XZ=              0.1754   YZ=              0.0018
 Traceless Quadrupole moment (field-independent basis, Debye-Ang):
   XX=              3.3481   YY=             -1.2266   ZZ=             -2.1215
   XY=              0.0017   XZ=              0.1754   YZ=              0.0018
 Octapole moment (field-independent basis, Debye-Ang**2):
  XXX=             -0.0485  YYY=            -54.7314  ZZZ=             -0.1379  XYY=              0.0042
  XXY=             -9.3536  XXZ=             -0.0320  XZZ=             -0.0030  YZZ=             -2.7126
  YYZ=             -0.0194  XYZ=             -8.7990
 Hexadecapole moment (field-independent basis, Debye-Ang**3):
 XXXX=          -3395.8527 YYYY=          -3120.8047 ZZZZ=          -3119.3982 XXXY=             -0.0323
 XXXZ=            -70.7645 YYYX=              0.2431 YYYZ=             -0.0210 ZZZX=            -37.9070
 ZZZY=             -0.2299 XXYY=          -1053.9957 XXZZ=          -1073.8965 YYZZ=          -1024.3295
 XXYZ=             -0.0943 YYXZ=             -9.9154 ZZXY=              0.0132
 N-N= 3.513717795775D+03 E-N=-2.461883844326D+04  KE= 6.661991536144D+03
 No NMR shielding tensors so no spin-rotation constants.
 Leave Link  601 at Tue Mar  6 12:10:01 2018, MaxMem=   536870912 cpu:         1.1
 (Enter /share/apps//mg09/l701.exe)
 Compute integral first derivatives.
 ... and contract with generalized density number  0.
   1 Symmetry operations used in ECPInt.
 ECPInt:  NShTT=   10440 NPrTT=   41973 LenC2=    9658 LenP2D=   27486.
 LDataN:  DoStor=T MaxTD1= 9 Len=  602
 Leave Link  701 at Tue Mar  6 12:10:20 2018, MaxMem=   536870912 cpu:        68.5
 (Enter /share/apps//mg09/l702.exe)
 L702 exits ... SP integral derivatives will be done elsewhere.
 Leave Link  702 at Tue Mar  6 12:10:22 2018, MaxMem=   536870912 cpu:         0.1
 (Enter /share/apps//mg09/l703.exe)
 Compute integral first derivatives, UseDBF=F ICtDFT=           0.
 Integral derivatives from FoFJK, PRISM(SPDF).
 Calling FoFJK, ICntrl=      2127 FMM=F ISym2X=0 I1Cent= 0 IOpClX= 0 NMat=1 NMatS=1 NMatT=0.
 FoFJK:  IHMeth= 1 ICntrl=    2127 DoSepK=F KAlg= 0 I1Cent=   0 FoldK=F
 IRaf=         0 NMat=   1 IRICut=       1 DoRegI=T DoRafI=F ISym2E= 0.
 FoFCou: FMM=F IPFlag=           0 FMFlag=      100000 FMFlg1=         800
         NFxFlg=           0 DoJE=F BraDBF=F KetDBF=F FulRan=T
         wScrn=  0.000000 ICntrl=    2127 IOpCl=  0 I1Cent=           0 NGrid=           0
         NMat0=    1 NMatS0=      1 NMatT0=    0 NMatD0=    1 NMtDS0=    0 NMtDT0=    0
 Symmetry not used in FoFCou.
 Defaulting to unpruned grid for atomic number  83.
 Defaulting to unpruned grid for atomic number  83.
 Defaulting to unpruned grid for atomic number  83.
 Defaulting to unpruned grid for atomic number  83.
 Leave Link  703 at Tue Mar  6 12:13:38 2018, MaxMem=   536870912 cpu:       782.5
 (Enter /share/apps//mg09/l716.exe)
 Dipole        =-1.92149903D-03 1.08980583D-01-1.26041642D-03
 ***** Axes restored to original set *****
 -------------------------------------------------------------------
 Center     Atomic                   Forces (Hartrees/Bohr)
 Number     Number              X              Y              Z
 -------------------------------------------------------------------
      1       83          -0.007909368    0.004359022   -0.001899597
      2       83           0.009609760   -0.002453910   -0.003150037
      3       83          -0.009558055   -0.002435956    0.003290516
      4       50           0.006991569   -0.003907284    0.009938213
      5       50          -0.006935198   -0.003956443   -0.009928842
      6       83           0.007927732    0.004344091    0.001920613
      7       32          -0.003240170    0.008861012    0.008148737
      8       32           0.003157411    0.008879582   -0.008224949
      9       32          -0.000043681   -0.013690112   -0.000094655
 -------------------------------------------------------------------
 Cartesian Forces:  Max     0.013690112 RMS     0.006698672
 Force constants in Cartesian coordinates: 
                1             2             3             4             5 
      1  0.153261D+00
      2 -0.349390D-01  0.139039D+00
      3  0.347947D-02 -0.110835D-01  0.141801D+00
      4 -0.282006D-02  0.589157D-02 -0.343656D-02  0.204156D+00
      5  0.550955D-02  0.244675D-02  0.156348D-02 -0.167289D-01  0.182139D+00
      6  0.480018D-02 -0.375757D-02  0.420656D-02 -0.335564D-01  0.479494D-02
      7 -0.276871D-01  0.166730D-01 -0.450304D-02 -0.690548D-02  0.376063D-02
      8 -0.143617D-01 -0.484666D-01  0.235694D-01 -0.375618D-02  0.570916D-02
      9  0.169946D-01  0.169421D-01 -0.317801D-01  0.743416D-02 -0.210753D-02
     10  0.676412D-03  0.252083D-02  0.570717D-03 -0.237565D-01  0.431171D-02
     11  0.541381D-02  0.300386D-02  0.194414D-02  0.895694D-02 -0.156047D-01
     12 -0.740177D-02  0.601064D-02  0.123853D-02 -0.107796D-01  0.993214D-02
     13 -0.210038D-01  0.225361D-01  0.928006D-02 -0.499171D-01 -0.655241D-02
     14 -0.157508D-03 -0.451786D-01 -0.275591D-01  0.100983D-01 -0.185932D-01
     15 -0.125212D-01 -0.367222D-02 -0.348235D-01  0.860026D-02 -0.930338D-02
     16 -0.697764D-02 -0.273321D-03 -0.483871D-02 -0.277222D-01  0.144472D-01
     17  0.258936D-03  0.373321D-03  0.820682D-04 -0.166343D-01 -0.485839D-01
     18 -0.484235D-02 -0.816833D-04  0.676884D-02 -0.444708D-02 -0.235883D-01
     19 -0.337302D-01 -0.126177D-02 -0.279328D-01  0.122546D-02  0.183482D-02
     20  0.138330D-01 -0.233326D-01  0.114473D-01  0.617914D-02  0.220794D-02
     21 -0.985998D-02 -0.181677D-01 -0.604174D-01  0.756277D-02 -0.522702D-02
     22 -0.640469D-01 -0.115075D-01  0.294032D-01 -0.397758D-01  0.324140D-01
     23  0.176454D-01 -0.236648D-01 -0.190434D-02  0.722921D-02 -0.578759D-01
     24  0.115717D-01  0.135156D-01 -0.353032D-01  0.103069D-01  0.307283D-02
     25  0.232867D-02  0.360112D-03 -0.202239D-02 -0.544840D-01 -0.389965D-01
     26  0.679747D-02 -0.422079D-02  0.194062D-02 -0.123569D-02 -0.518447D-01
     27 -0.222063D-02  0.294318D-03  0.830921D-02  0.183156D-01  0.208628D-01
                6             7             8             9            10 
      6  0.149553D+00
      7  0.743709D-02  0.204024D+00
      8  0.212782D-02  0.168207D-01  0.182288D+00
      9  0.298409D-02 -0.336163D-01 -0.472363D-02  0.149498D+00
     10  0.212533D-01 -0.499892D-01  0.655035D-02 -0.251873D-01  0.135695D+00
     11 -0.537208D-02 -0.101191D-01 -0.186170D-01  0.403362D-02 -0.956285D-02
     12 -0.404612D-01  0.863396D-02  0.928908D-02 -0.279960D-01  0.361006D-01
     13 -0.251932D-01 -0.236330D-01 -0.433323D-02  0.211598D-01  0.423287D-02
     14 -0.405301D-02 -0.897483D-02 -0.155220D-01  0.536296D-02 -0.164917D-02
     15 -0.279949D-01 -0.107682D-01 -0.991801D-02 -0.402336D-01 -0.709271D-02
     16  0.169971D-01 -0.280085D-02 -0.552184D-02  0.479721D-02 -0.209807D-01
     17 -0.169302D-01 -0.591037D-02  0.244487D-02  0.376629D-02 -0.224890D-01
     18 -0.317303D-01 -0.342285D-02 -0.155919D-02  0.419643D-02  0.923018D-02
     19 -0.579102D-03 -0.398235D-01 -0.324835D-01 -0.103971D-01 -0.266943D-01
     20 -0.254299D-02 -0.727124D-02 -0.581774D-01 -0.252688D-01  0.118842D-01
     21 -0.489844D-04  0.103341D-01 -0.302478D-02 -0.255699D-01 -0.174717D-01
     22 -0.104812D-01  0.123895D-02 -0.183713D-02 -0.582199D-03  0.403800D-02
     23  0.252270D-01 -0.617113D-02  0.220068D-02  0.253937D-02  0.340312D-02
     24 -0.255613D-01  0.756124D-02  0.523186D-02 -0.578118D-04 -0.474437D-02
     25  0.193223D-01 -0.544236D-01  0.389225D-01  0.193970D-01 -0.232212D-01
     26  0.506111D-03  0.119233D-02 -0.518594D-01 -0.544331D-03  0.503084D-02
     27 -0.309466D-01  0.183439D-01 -0.209925D-01 -0.310409D-01 -0.126588D-01
               11            12            13            14            15 
     11  0.148545D+00
     12 -0.250482D-01  0.180912D+00
     13  0.165668D-02 -0.709105D-02  0.135664D+00
     14  0.583915D-02 -0.333059D-02  0.958086D-02  0.148795D+00
     15  0.332379D-02 -0.566516D-02  0.361398D-01  0.249923D-01  0.180960D+00
     16  0.201759D-03 -0.125264D-01  0.688326D-03 -0.542410D-02 -0.738272D-02
     17 -0.452298D-01  0.367489D-02 -0.252477D-02  0.299417D-02 -0.602569D-02
     18  0.276111D-01 -0.348161D-01  0.576862D-03 -0.195723D-02  0.124107D-02
     19  0.199695D-01  0.374423D-02  0.404145D-02  0.135357D-02  0.304073D-02
     20 -0.409149D-01 -0.165510D-01 -0.340948D-02  0.281769D-02 -0.542712D-02
     21  0.163664D-01 -0.284192D-01 -0.473174D-02 -0.558623D-02 -0.233128D-02
     22 -0.135635D-02  0.303065D-02 -0.267587D-01 -0.199980D-01  0.372159D-02
     23  0.283278D-02  0.542977D-02 -0.119378D-01 -0.411183D-01  0.165846D-01
     24  0.557574D-02 -0.233921D-02 -0.174763D-01 -0.164123D-01 -0.285016D-01
     25 -0.151603D-01 -0.137107D-01 -0.233139D-01  0.151709D-01 -0.137376D-01
     26 -0.398549D-01  0.105933D-01 -0.501593D-02 -0.400340D-01 -0.105543D-01
     27 -0.284345D-01 -0.424541D-01 -0.126643D-01  0.285432D-01 -0.426510D-01
               16            17            18            19            20 
     16  0.153124D+00
     17  0.349248D-01  0.139265D+00
     18  0.340654D-02  0.111189D-01  0.141600D+00
     19 -0.640293D-01  0.114891D-01  0.293821D-01  0.143605D+00
     20 -0.176938D-01 -0.237116D-01  0.193348D-02 -0.343851D-02  0.144901D+00
     21  0.115929D-01 -0.134990D-01 -0.352616D-01 -0.408640D-02  0.363998D-01
     22 -0.336422D-01  0.122428D-02 -0.278600D-01  0.687768D-02 -0.256889D-04
     23 -0.138513D-01 -0.233341D-01 -0.115337D-01  0.386054D-04  0.377281D-03
     24 -0.982177D-02  0.181001D-01 -0.602908D-01  0.485147D-02  0.789140D-04
     25  0.234019D-02 -0.338669D-03 -0.202339D-02  0.852785D-02 -0.576217D-04
     26 -0.680941D-02 -0.421750D-02 -0.194340D-02  0.249822D-02 -0.416730D-02
     27 -0.222422D-02 -0.287350D-03  0.829207D-02  0.197684D-02 -0.695168D-04
               21            22            23            24            25 
     21  0.156506D+00
     22  0.484715D-02  0.143542D+00
     23 -0.804874D-04  0.357233D-02  0.144754D+00
     24 -0.687606D-02 -0.408201D-02 -0.363432D-01  0.156499D+00
     25  0.181285D-02  0.852701D-02  0.715745D-04  0.183317D-02  0.133719D+00
     26 -0.718104D-02 -0.248590D-02 -0.417176D-02  0.718047D-02  0.280690D-04
     27  0.241895D-02  0.200281D-02  0.809465D-04  0.243071D-02 -0.108712D-01
               26            27 
     26  0.200370D+00
     27  0.253304D-05  0.125642D+00
 Leave Link  716 at Tue Mar  6 12:13:38 2018, MaxMem=   536870912 cpu:         0.1
 (Enter /share/apps//mg09/l103.exe)

 GradGradGradGradGradGradGradGradGradGradGradGradGradGradGradGradGradGrad
 Berny optimization.
 Search for a local minimum.
 Step number   1 out of a maximum of  100
 All quantities printed in internal units (Hartrees-Bohrs-Radians)
 Second derivative matrix not updated -- first step.
 ITU=  0
     Eigenvalues ---    0.08596   0.12011   0.12117   0.12984   0.14425
     Eigenvalues ---    0.14656   0.15061   0.15092   0.15911   0.16132
     Eigenvalues ---    0.17259   0.22731   0.23593   0.24175   0.24744
     Eigenvalues ---    0.25685   0.26263   0.28056   0.28626   0.30792
     Eigenvalues ---    0.31535
 RFO step:  Lambda=-7.23728796D-03 EMin= 8.59600126D-02
 Linear search not attempted -- first point.
 TrRot= -0.000014  0.000590 -0.000018  0.000000  0.000062  0.000000
 Variable       Old X    -DE/DX   Delta X   Delta X   Delta X     New X
                                 (Linear)    (Quad)   (Total)
    X1        3.68308  -0.00791   0.00000  -0.05380  -0.05374   3.62934
    Y1       -2.89490   0.00436   0.00000   0.02934   0.02993  -2.86497
    Z1        1.19371  -0.00190   0.00000  -0.01802  -0.01826   1.17544
    X2       -3.66395   0.00961   0.00000   0.04856   0.04867  -3.61528
    Y2        1.82780  -0.00245   0.00000  -0.01995  -0.01936   1.80844
    Z2        2.07256  -0.00315   0.00000  -0.02491  -0.02470   2.04786
    X3        3.66027  -0.00956   0.00000  -0.04815  -0.04830   3.61198
    Y3        1.82928  -0.00244   0.00000  -0.01982  -0.01923   1.81005
    Z3       -2.07918   0.00329   0.00000   0.02576   0.02552  -2.05366
    X4       -2.00141   0.00699   0.00000   0.03882   0.03856  -1.96285
    Y4        1.91580  -0.00391   0.00000  -0.02389  -0.02330   1.89251
    Z4       -4.03894   0.00994   0.00000   0.06137   0.06147  -3.97746
    X5        1.99608  -0.00694   0.00000  -0.03845  -0.03822   1.95786
    Y5        1.91876  -0.00396   0.00000  -0.02408  -0.02349   1.89527
    Z5        4.04163  -0.00993   0.00000  -0.06134  -0.06148   3.98015
    X6       -3.67879   0.00793   0.00000   0.05380   0.05372  -3.62508
    Y6       -2.90071   0.00434   0.00000   0.02937   0.02996  -2.87075
    Z6       -1.19145   0.00192   0.00000   0.01818   0.01839  -1.17307
    X7        1.15540  -0.00324   0.00000  -0.01955  -0.01979   1.13561
    Y7       -2.85286   0.00886   0.00000   0.05279   0.05338  -2.79949
    Z7       -3.71664   0.00815   0.00000   0.04559   0.04550  -3.67114
    X8       -1.14977   0.00316   0.00000   0.01916   0.01938  -1.13040
    Y8       -2.85040   0.00888   0.00000   0.05267   0.05326  -2.79715
    Z8        3.72095  -0.00822   0.00000  -0.04593  -0.04588   3.67507
    X9        0.00110  -0.00004   0.00000  -0.00026  -0.00028   0.00082
    Y9        5.25859  -0.01369   0.00000  -0.08175  -0.08116   5.17744
    Z9        0.00281  -0.00009   0.00000  -0.00054  -0.00056   0.00225
         Item               Value     Threshold  Converged?
 Maximum Force            0.013690     0.000450     NO 
 RMS     Force            0.006699     0.000300     NO 
 Maximum Displacement     0.081155     0.001800     NO 
 RMS     Displacement     0.040258     0.001200     NO 
 Predicted change in Energy=-3.777019D-03
 Lowest energy point so far.  Saving SCF results.
 GradGradGradGradGradGradGradGradGradGradGradGradGradGradGradGradGradGrad

 Leave Link  103 at Tue Mar  6 12:13:38 2018, MaxMem=   536870912 cpu:         0.1
 (Enter /share/apps//mg09/l202.exe)
                          Input orientation:                          
 ---------------------------------------------------------------------
 Center     Atomic      Atomic             Coordinates (Angstroms)
 Number     Number       Type             X           Y           Z
 ---------------------------------------------------------------------
      1         83           0        1.920565   -1.516076    0.622017
      2         83           0       -1.913123    0.956986    1.083679
      3         83           0        1.911377    0.957838   -1.086750
      4         50           0       -1.038693    1.001471   -2.104783
      5         50           0        1.036057    1.002932    2.106207
      6         83           0       -1.918309   -1.519134   -0.620760
      7         32           0        0.600937   -1.481426   -1.942682
      8         32           0       -0.598180   -1.480185    1.944763
      9         32           0        0.000434    2.739782    0.001191
 ---------------------------------------------------------------------
                    Distance matrix (angstroms):
                    1          2          3          4          5
     1  Bi   0.000000
     2  Bi   4.585448   0.000000
     3  Bi   3.006696   4.397450   0.000000
     4  Sn   4.746650   3.306493   3.121091   0.000000
     5  Sn   3.054600   3.121752   3.311072   4.694361   0.000000
     6  Bi   4.035028   3.006045   4.584651   3.054422   4.746097
     7  Ge   2.884493   4.628738   2.898254   2.979839   4.770206
     8  Ge   2.845176   2.900060   4.629461   4.769853   2.977023
     9  Ge   4.710060   2.830520   2.830308   2.921753   2.918948
                    6          7          8          9
     6  Bi   0.000000
     7  Ge   2.845259   0.000000
     8  Ge   2.885509   4.068183   0.000000
     9  Ge   4.712405   4.685920   4.684436   0.000000
 Stoichiometry    Bi4Ge3Sn2
 Framework group  C1[X(Bi4Ge3Sn2)]
 Deg. of freedom    21
 Full point group                 C1      NOp   1
 RotChk:  IX=0 Diff= 9.29D-03
 Largest Abelian subgroup         C1      NOp   1
 Largest concise Abelian subgroup C1      NOp   1
                         Standard orientation:                         
 ---------------------------------------------------------------------
 Center     Atomic      Atomic             Coordinates (Angstroms)
 Number     Number       Type             X           Y           Z
 ---------------------------------------------------------------------
      1         83           0        1.916292   -1.516593    0.634291
      2         83           0       -1.920148    0.956696    1.071217
      3         83           0        1.918528    0.957639   -1.074041
      4         50           0       -1.024787    1.001699   -2.111423
      5         50           0        1.022254    1.002213    2.113106
      6         83           0       -1.914334   -1.519109   -0.633678
      7         32           0        0.613545   -1.481360   -1.939015
      8         32           0       -0.611085   -1.480742    1.940469
      9         32           0        0.000622    2.739537    0.001654
 ---------------------------------------------------------------------
 Rotational constants (GHZ):      0.1071082      0.0897232      0.0865785
 Leave Link  202 at Tue Mar  6 12:13:39 2018, MaxMem=   536870912 cpu:         0.0
 (Enter /share/apps//mg09/l301.exe)
 Standard basis: def2TZVP (5D, 7F)
 Ernie: Thresh=  0.10000D-02 Tol=  0.10000D-05 Strict=F.
 There are   519 symmetry adapted cartesian basis functions of A   symmetry.
 There are   444 symmetry adapted basis functions of A   symmetry.
   444 basis functions,   963 primitive gaussians,   519 cartesian basis functions
   116 alpha electrons      116 beta electrons
       nuclear repulsion energy      3564.7786924133 Hartrees.
 IExCor= 1009 DFT=T Ex+Corr=PBE1PBE ExCW=0 ScaHFX=  0.250000
 ScaDFX=  0.750000  0.750000  1.000000  1.000000 ScalE2=  1.000000  1.000000
 IRadAn=      0 IRanWt=     -1 IRanGd=            0 ICorTp=0 IEmpDi=  4
 NAtoms=    9 NActive=    9 NUniq=    9 SFac= 1.00D+00 NAtFMM=   60 NAOKFM=F Big=F
 Integral buffers will be    131072 words long.
 Raffenetti 2 integral format.
 Two-electron integral symmetry is turned on.
 Leave Link  301 at Tue Mar  6 12:13:39 2018, MaxMem=   536870912 cpu:         0.2
 (Enter /share/apps//mg09/l302.exe)
 NPDir=0 NMtPBC=     1 NCelOv=     1 NCel=       1 NClECP=     1 NCelD=      1
         NCelK=      1 NCelE2=     1 NClLst=     1 CellRange=     0.0.
 One-electron integrals computed using PRISM.
   1 Symmetry operations used in ECPInt.
 ECPInt:  NShTT=   10440 NPrTT=   41973 LenC2=    9684 LenP2D=   27648.
 LDataN:  DoStor=T MaxTD1= 8 Len=  415
 NBasis=   444 RedAO= T EigKep=  1.44D-03  NBF=   444
 NBsUse=   444 1.00D-06 EigRej= -1.00D+00 NBFU=   444
 Precomputing XC quadrature grid using
 IXCGrd= 4 IRadAn=           0 IRanWt=          -1 IRanGd=           0 AccXCQ= 0.00D+00.
 Defaulting to unpruned grid for atomic number  83.
 Defaulting to unpruned grid for atomic number  50.
 Generated NRdTot=       0 NPtTot=           0 NUsed=           0 NTot=          32
 NSgBfM=   503   504   504   504   504 MxSgAt=     9 MxSgA2=     9.
 Leave Link  302 at Tue Mar  6 12:13:47 2018, MaxMem=   536870912 cpu:        25.8
 (Enter /share/apps//mg09/l303.exe)
 DipDrv:  MaxL=1.
 Leave Link  303 at Tue Mar  6 12:13:47 2018, MaxMem=   536870912 cpu:         0.2
 (Enter /share/apps//mg09/l401.exe)
 Initial guess from the checkpoint file:  "Isomer_12.chk"
 B after Tr=     0.000000    0.000000    0.000000
         Rot=    0.999995   -0.000098    0.003280    0.000040 Ang=  -0.38 deg.
 Guess basis will be translated and rotated to current coordinates.
 JPrj=2 DoOrth=T DoCkMO=T.
 Generating alternative initial guess.
 ExpMin= 4.62D-02 ExpMax= 4.66D+05 ExpMxC= 4.50D+03 IAcc=2 IRadAn=         4 AccDes= 0.00D+00
 Harris functional with IExCor= 1009 and IRadAn=       4 diagonalized for initial guess.
 HarFok:  IExCor= 1009 AccDes= 0.00D+00 IRadAn=         4 IDoV= 1 UseB2=F ITyADJ=14
 ICtDFT=  3500011 ScaDFX=  1.000000  1.000000  1.000000  1.000000
 Defaulting to unpruned grid for atomic number  83.
 Defaulting to unpruned grid for atomic number  83.
 Defaulting to unpruned grid for atomic number  83.
 Defaulting to unpruned grid for atomic number  83.
 FoFCou: FMM=F IPFlag=           0 FMFlag=      100000 FMFlg1=           0
         NFxFlg=           0 DoJE=T BraDBF=F KetDBF=T FulRan=T
         wScrn=  0.000000 ICntrl=     500 IOpCl=  0 I1Cent=   200000004 NGrid=           0
         NMat0=    1 NMatS0=      1 NMatT0=    0 NMatD0=    1 NMtDS0=    0 NMtDT0=    0
 Petite list used in FoFCou.
 Harris En= -7518.60734762499    
 Leave Link  401 at Tue Mar  6 12:13:50 2018, MaxMem=   536870912 cpu:        11.5
 (Enter /share/apps//mg09/l502.exe)
 Closed shell SCF:
 Using DIIS extrapolation, IDIIS=  1040.
 Integral symmetry usage will be decided dynamically.
 IVT=     1410107 IEndB=     1410107 NGot=   536870912 MDV=   536322046
 LenX=   536322046 LenY=   536052166
 Requested convergence on RMS density matrix=1.00D-08 within 768 cycles.
 Requested convergence on MAX density matrix=1.00D-06.
 Requested convergence on             energy=1.00D-06.
 No special actions if energy rises.
 Fock matrices will be formed incrementally for  20 cycles.

 Cycle   1  Pass 1  IDiag  1:
 FoFJK:  IHMeth= 1 ICntrl=       0 DoSepK=F KAlg= 0 I1Cent=   0 FoldK=F
 IRaf= 880000000 NMat=   1 IRICut=       1 DoRegI=T DoRafI=F ISym2E= 0.
 FoFCou: FMM=F IPFlag=           0 FMFlag=      100000 FMFlg1=           0
         NFxFlg=           0 DoJE=F BraDBF=F KetDBF=F FulRan=T
         wScrn=  0.000000 ICntrl=       0 IOpCl=  0 I1Cent=           0 NGrid=           0
         NMat0=    1 NMatS0=      1 NMatT0=    0 NMatD0=    1 NMtDS0=    0 NMtDT0=    0
 Symmetry not used in FoFCou.
 Defaulting to unpruned grid for atomic number  83.
 Defaulting to unpruned grid for atomic number  83.
 Defaulting to unpruned grid for atomic number  83.
 Defaulting to unpruned grid for atomic number  83.
 E= -7517.82080679134    
 DIIS: error= 7.03D-03 at cycle   1 NSaved=   1.
 NSaved= 1 IEnMin= 1 EnMin= -7517.82080679134     IErMin= 1 ErrMin= 7.03D-03
 ErrMax= 7.03D-03  0.00D+00 EMaxC= 1.00D-01 BMatC= 8.14D-03 BMatP= 8.14D-03
 IDIUse=3 WtCom= 9.30D-01 WtEn= 7.03D-02
 Coeff-Com:  0.100D+01
 Coeff-En:   0.100D+01
 Coeff:      0.100D+01
 Gap=     8.230 Goal=   None    Shift=    0.000
 GapD=    8.230 DampG=2.000 DampE=1.000 DampFc=2.0000 IDamp=-1.
 RMSDP=1.65D-04 MaxDP=4.40D-03              OVMax= 1.81D-02

 Cycle   2  Pass 1  IDiag  1:
 RMSU=  1.64D-04    CP:  1.00D+00
 E= -7517.82086953393     Delta-E=       -0.000062742598 Rises=F Damp=F
 DIIS: error= 1.62D-03 at cycle   2 NSaved=   2.
 NSaved= 2 IEnMin= 2 EnMin= -7517.82086953393     IErMin= 2 ErrMin= 1.62D-03
 ErrMax= 1.62D-03  0.00D+00 EMaxC= 1.00D-01 BMatC= 1.38D-03 BMatP= 8.14D-03
 IDIUse=3 WtCom= 9.84D-01 WtEn= 1.62D-02
 Coeff-Com:  0.183D+00 0.817D+00
 Coeff-En:   0.479D+00 0.521D+00
 Coeff:      0.188D+00 0.812D+00
 Gap=     0.128 Goal=   None    Shift=    0.000
 RMSDP=1.89D-04 MaxDP=7.52D-03 DE=-6.27D-05 OVMax= 1.38D-02

 Cycle   3  Pass 1  IDiag  1:
 RMSU=  1.67D-04    CP:  9.99D-01  5.00D-01
 E= -7517.81951788398     Delta-E=        0.001351649957 Rises=F Damp=F
 DIIS: error= 2.42D-03 at cycle   3 NSaved=   3.
 NSaved= 3 IEnMin= 2 EnMin= -7517.82086953393     IErMin= 2 ErrMin= 1.62D-03
 ErrMax= 2.42D-03  0.00D+00 EMaxC= 1.00D-01 BMatC= 3.16D-03 BMatP= 1.38D-03
 IDIUse=3 WtCom= 1.69D-01 WtEn= 8.31D-01
 Coeff-Com:  0.287D-02 0.601D+00 0.396D+00
 Coeff-En:   0.000D+00 0.652D+00 0.348D+00
 Coeff:      0.484D-03 0.644D+00 0.356D+00
 Gap=     0.129 Goal=   None    Shift=    0.000
 RMSDP=9.87D-05 MaxDP=4.19D-03 DE= 1.35D-03 OVMax= 8.58D-03

 Cycle   4  Pass 1  IDiag  1:
 RMSU=  2.35D-05    CP:  9.99D-01  7.88D-01  5.13D-01
 E= -7517.82184762483     Delta-E=       -0.002329740848 Rises=F Damp=F
 DIIS: error= 3.60D-04 at cycle   4 NSaved=   4.
 NSaved= 4 IEnMin= 4 EnMin= -7517.82184762483     IErMin= 4 ErrMin= 3.60D-04
 ErrMax= 3.60D-04  0.00D+00 EMaxC= 1.00D-01 BMatC= 8.58D-05 BMatP= 1.38D-03
 IDIUse=3 WtCom= 9.96D-01 WtEn= 3.60D-03
 Coeff-Com: -0.375D-03 0.381D+00 0.195D+00 0.424D+00
 Coeff-En:   0.000D+00 0.195D-01 0.000D+00 0.980D+00
 Coeff:     -0.374D-03 0.380D+00 0.195D+00 0.426D+00
 Gap=     0.129 Goal=   None    Shift=    0.000
 RMSDP=2.65D-05 MaxDP=8.46D-04 DE=-2.33D-03 OVMax= 3.04D-03

 Cycle   5  Pass 1  IDiag  1:
 RMSU=  1.44D-05    CP:  9.99D-01  8.39D-01  4.55D-01  2.28D-01
 E= -7517.82189363703     Delta-E=       -0.000046012203 Rises=F Damp=F
 DIIS: error= 1.45D-04 at cycle   5 NSaved=   5.
 NSaved= 5 IEnMin= 5 EnMin= -7517.82189363703     IErMin= 5 ErrMin= 1.45D-04
 ErrMax= 1.45D-04  0.00D+00 EMaxC= 1.00D-01 BMatC= 1.99D-05 BMatP= 8.58D-05
 IDIUse=3 WtCom= 9.99D-01 WtEn= 1.45D-03
 Coeff-Com: -0.823D-03 0.220D+00 0.955D-01 0.374D+00 0.311D+00
 Coeff-En:   0.000D+00 0.000D+00 0.000D+00 0.282D+00 0.718D+00
 Coeff:     -0.822D-03 0.219D+00 0.953D-01 0.374D+00 0.312D+00
 Gap=     0.129 Goal=   None    Shift=    0.000
 RMSDP=1.12D-05 MaxDP=4.12D-04 DE=-4.60D-05 OVMax= 1.45D-03

 Cycle   6  Pass 1  IDiag  1:
 RMSU=  3.33D-06    CP:  9.99D-01  8.46D-01  4.51D-01  5.27D-01  4.47D-01
 E= -7517.82191838836     Delta-E=       -0.000024751334 Rises=F Damp=F
 DIIS: error= 1.09D-05 at cycle   6 NSaved=   6.
 NSaved= 6 IEnMin= 6 EnMin= -7517.82191838836     IErMin= 6 ErrMin= 1.09D-05
 ErrMax= 1.09D-05  0.00D+00 EMaxC= 1.00D-01 BMatC= 2.00D-07 BMatP= 1.99D-05
 IDIUse=1 WtCom= 1.00D+00 WtEn= 0.00D+00
 Coeff-Com: -0.315D-03 0.566D-01 0.223D-01 0.125D+00 0.133D+00 0.664D+00
 Coeff:     -0.315D-03 0.566D-01 0.223D-01 0.125D+00 0.133D+00 0.664D+00
 Gap=     0.129 Goal=   None    Shift=    0.000
 RMSDP=1.85D-06 MaxDP=9.83D-05 DE=-2.48D-05 OVMax= 2.67D-04

 Cycle   7  Pass 1  IDiag  1:
 RMSU=  1.49D-06    CP:  9.99D-01  8.50D-01  4.52D-01  5.48D-01  4.91D-01
                    CP:  9.14D-01
 E= -7517.82191850958     Delta-E=       -0.000000121212 Rises=F Damp=F
 DIIS: error= 7.71D-06 at cycle   7 NSaved=   7.
 NSaved= 7 IEnMin= 7 EnMin= -7517.82191850958     IErMin= 7 ErrMin= 7.71D-06
 ErrMax= 7.71D-06  0.00D+00 EMaxC= 1.00D-01 BMatC= 8.13D-08 BMatP= 2.00D-07
 IDIUse=1 WtCom= 1.00D+00 WtEn= 0.00D+00
 Coeff-Com: -0.292D-04-0.106D-01-0.503D-02 0.106D-02 0.217D-01 0.414D+00
 Coeff-Com:  0.579D+00
 Coeff:     -0.292D-04-0.106D-01-0.503D-02 0.106D-02 0.217D-01 0.414D+00
 Coeff:      0.579D+00
 Gap=     0.129 Goal=   None    Shift=    0.000
 RMSDP=9.81D-07 MaxDP=4.44D-05 DE=-1.21D-07 OVMax= 1.13D-04

 Cycle   8  Pass 1  IDiag  1:
 RMSU=  3.55D-07    CP:  9.99D-01  8.51D-01  4.54D-01  5.45D-01  5.08D-01
                    CP:  1.09D+00  6.73D-01
 E= -7517.82191859471     Delta-E=       -0.000000085134 Rises=F Damp=F
 DIIS: error= 3.20D-06 at cycle   8 NSaved=   8.
 NSaved= 8 IEnMin= 8 EnMin= -7517.82191859471     IErMin= 8 ErrMin= 3.20D-06
 ErrMax= 3.20D-06  0.00D+00 EMaxC= 1.00D-01 BMatC= 7.06D-09 BMatP= 8.13D-08
 IDIUse=1 WtCom= 1.00D+00 WtEn= 0.00D+00
 Coeff-Com:  0.228D-04-0.126D-01-0.497D-02-0.147D-01-0.526D-02 0.148D+00
 Coeff-Com:  0.311D+00 0.578D+00
 Coeff:      0.228D-04-0.126D-01-0.497D-02-0.147D-01-0.526D-02 0.148D+00
 Coeff:      0.311D+00 0.578D+00
 Gap=     0.129 Goal=   None    Shift=    0.000
 RMSDP=2.63D-07 MaxDP=1.56D-05 DE=-8.51D-08 OVMax= 3.49D-05

 Cycle   9  Pass 1  IDiag  1:
 RMSU=  1.25D-07    CP:  9.99D-01  8.51D-01  4.55D-01  5.50D-01  5.15D-01
                    CP:  1.10D+00  7.40D-01  7.97D-01
 E= -7517.82191860061     Delta-E=       -0.000000005897 Rises=F Damp=F
 DIIS: error= 4.84D-07 at cycle   9 NSaved=   9.
 NSaved= 9 IEnMin= 9 EnMin= -7517.82191860061     IErMin= 9 ErrMin= 4.84D-07
 ErrMax= 4.84D-07  0.00D+00 EMaxC= 1.00D-01 BMatC= 3.42D-10 BMatP= 7.06D-09
 IDIUse=1 WtCom= 1.00D+00 WtEn= 0.00D+00
 Coeff-Com:  0.124D-04-0.567D-02-0.213D-02-0.728D-02-0.404D-02 0.531D-01
 Coeff-Com:  0.125D+00 0.281D+00 0.560D+00
 Coeff:      0.124D-04-0.567D-02-0.213D-02-0.728D-02-0.404D-02 0.531D-01
 Coeff:      0.125D+00 0.281D+00 0.560D+00
 Gap=     0.129 Goal=   None    Shift=    0.000
 RMSDP=8.44D-08 MaxDP=3.59D-06 DE=-5.90D-09 OVMax= 9.90D-06

 Cycle  10  Pass 1  IDiag  1:
 RMSU=  7.23D-08    CP:  9.99D-01  8.51D-01  4.55D-01  5.51D-01  5.15D-01
                    CP:  1.10D+00  7.42D-01  8.57D-01  8.34D-01
 E= -7517.82191860071     Delta-E=       -0.000000000102 Rises=F Damp=F
 DIIS: error= 6.98D-07 at cycle  10 NSaved=  10.
 NSaved=10 IEnMin=10 EnMin= -7517.82191860071     IErMin= 9 ErrMin= 4.84D-07
 ErrMax= 6.98D-07  0.00D+00 EMaxC= 1.00D-01 BMatC= 3.00D-10 BMatP= 3.42D-10
 IDIUse=1 WtCom= 1.00D+00 WtEn= 0.00D+00
 Coeff-Com:  0.435D-05-0.144D-02-0.460D-03-0.223D-02-0.210D-02 0.548D-02
 Coeff-Com:  0.243D-01 0.877D-01 0.487D+00 0.401D+00
 Coeff:      0.435D-05-0.144D-02-0.460D-03-0.223D-02-0.210D-02 0.548D-02
 Coeff:      0.243D-01 0.877D-01 0.487D+00 0.401D+00
 Gap=     0.129 Goal=   None    Shift=    0.000
 RMSDP=5.96D-08 MaxDP=2.35D-06 DE=-1.02D-10 OVMax= 7.02D-06

 Cycle  11  Pass 1  IDiag  1:
 RMSU=  2.68D-08    CP:  9.99D-01  8.51D-01  4.55D-01  5.51D-01  5.15D-01
                    CP:  1.11D+00  7.46D-01  8.64D-01  1.05D+00  3.99D-01
 E= -7517.82191860095     Delta-E=       -0.000000000242 Rises=F Damp=F
 DIIS: error= 2.39D-07 at cycle  11 NSaved=  11.
 NSaved=11 IEnMin=11 EnMin= -7517.82191860095     IErMin=11 ErrMin= 2.39D-07
 ErrMax= 2.39D-07  0.00D+00 EMaxC= 1.00D-01 BMatC= 4.75D-11 BMatP= 3.00D-10
 IDIUse=1 WtCom= 1.00D+00 WtEn= 0.00D+00
 Coeff-Com: -0.364D-06 0.555D-03 0.271D-03 0.431D-03-0.416D-03-0.111D-01
 Coeff-Com: -0.175D-01-0.128D-01 0.217D+00 0.320D+00 0.504D+00
 Coeff:     -0.364D-06 0.555D-03 0.271D-03 0.431D-03-0.416D-03-0.111D-01
 Coeff:     -0.175D-01-0.128D-01 0.217D+00 0.320D+00 0.504D+00
 Gap=     0.129 Goal=   None    Shift=    0.000
 RMSDP=2.08D-08 MaxDP=7.82D-07 DE=-2.42D-10 OVMax= 3.10D-06

 Cycle  12  Pass 1  IDiag  1:
 RMSU=  8.03D-09    CP:  9.99D-01  8.51D-01  4.55D-01  5.51D-01  5.16D-01
                    CP:  1.11D+00  7.48D-01  8.74D-01  1.08D+00  5.97D-01
                    CP:  6.80D-01
 E= -7517.82191860138     Delta-E=       -0.000000000431 Rises=F Damp=F
 DIIS: error= 4.15D-08 at cycle  12 NSaved=  12.
 NSaved=12 IEnMin=12 EnMin= -7517.82191860138     IErMin=12 ErrMin= 4.15D-08
 ErrMax= 4.15D-08  0.00D+00 EMaxC= 1.00D-01 BMatC= 2.05D-12 BMatP= 4.75D-11
 IDIUse=1 WtCom= 1.00D+00 WtEn= 0.00D+00
 Coeff-Com: -0.544D-06 0.401D-03 0.174D-03 0.396D-03-0.178D-05-0.606D-02
 Coeff-Com: -0.112D-01-0.154D-01 0.684D-01 0.134D+00 0.271D+00 0.558D+00
 Coeff:     -0.544D-06 0.401D-03 0.174D-03 0.396D-03-0.178D-05-0.606D-02
 Coeff:     -0.112D-01-0.154D-01 0.684D-01 0.134D+00 0.271D+00 0.558D+00
 Gap=     0.129 Goal=   None    Shift=    0.000
 RMSDP=6.07D-09 MaxDP=4.02D-07 DE=-4.31D-10 OVMax= 6.99D-07

 SCF Done:  E(RPBE1PBE) =  -7517.82191860     A.U. after   12 cycles
            NFock= 12  Conv=0.61D-08     -V/T= 2.1284
 KE= 6.662198019332D+03 PE=-2.472102150425D+04 EE= 6.976222873899D+03
 Leave Link  502 at Tue Mar  6 12:22:38 2018, MaxMem=   536870912 cpu:      2110.6
 (Enter /share/apps//mg09/l701.exe)
 Compute integral first derivatives.
 ... and contract with generalized density number  0.
   1 Symmetry operations used in ECPInt.
 ECPInt:  NShTT=   10440 NPrTT=   41973 LenC2=    9684 LenP2D=   27648.
 LDataN:  DoStor=T MaxTD1= 9 Len=  602
 Leave Link  701 at Tue Mar  6 12:22:56 2018, MaxMem=   536870912 cpu:        71.0
 (Enter /share/apps//mg09/l702.exe)
 L702 exits ... SP integral derivatives will be done elsewhere.
 Leave Link  702 at Tue Mar  6 12:22:56 2018, MaxMem=   536870912 cpu:         0.1
 (Enter /share/apps//mg09/l703.exe)
 Compute integral first derivatives, UseDBF=F ICtDFT=           0.
 Integral derivatives from FoFJK, PRISM(SPDF).
 Calling FoFJK, ICntrl=      2127 FMM=F ISym2X=0 I1Cent= 0 IOpClX= 0 NMat=1 NMatS=1 NMatT=0.
 FoFJK:  IHMeth= 1 ICntrl=    2127 DoSepK=F KAlg= 0 I1Cent=   0 FoldK=F
 IRaf=         0 NMat=   1 IRICut=       1 DoRegI=T DoRafI=F ISym2E= 0.
 FoFCou: FMM=F IPFlag=           0 FMFlag=      100000 FMFlg1=         800
         NFxFlg=           0 DoJE=F BraDBF=F KetDBF=F FulRan=T
         wScrn=  0.000000 ICntrl=    2127 IOpCl=  0 I1Cent=           0 NGrid=           0
         NMat0=    1 NMatS0=      1 NMatT0=    0 NMatD0=    1 NMtDS0=    0 NMtDT0=    0
 Symmetry not used in FoFCou.
 Defaulting to unpruned grid for atomic number  83.
 Defaulting to unpruned grid for atomic number  83.
 Defaulting to unpruned grid for atomic number  83.
 Defaulting to unpruned grid for atomic number  83.
 Leave Link  703 at Tue Mar  6 12:26:01 2018, MaxMem=   536870912 cpu:       738.6
 (Enter /share/apps//mg09/l716.exe)
 Dipole        =-1.67860716D-03 8.91871527D-02-1.06081030D-03
 ***** Axes restored to original set *****
 -------------------------------------------------------------------
 Center     Atomic                   Forces (Hartrees/Bohr)
 Number     Number              X              Y              Z
 -------------------------------------------------------------------
      1       83          -0.002888763   -0.000264657    0.000045926
      2       83           0.003298859    0.000348079   -0.000196624
      3       83          -0.003254099    0.000363986    0.000321681
      4       50           0.003606417   -0.001820074    0.004397023
      5       50          -0.003544987   -0.001855003   -0.004395145
      6       83           0.002914261   -0.000286056   -0.000025135
      7       32          -0.001972220    0.005018163    0.003374508
      8       32           0.001888594    0.005026596   -0.003437763
      9       32          -0.000048063   -0.006531035   -0.000084470
 -------------------------------------------------------------------
 Cartesian Forces:  Max     0.006531035 RMS     0.002941481
 Leave Link  716 at Tue Mar  6 12:26:01 2018, MaxMem=   536870912 cpu:         0.1
 (Enter /share/apps//mg09/l103.exe)

 GradGradGradGradGradGradGradGradGradGradGradGradGradGradGradGradGradGrad
 Berny optimization.
 Search for a local minimum.
 Step number   2 out of a maximum of  100
 All quantities printed in internal units (Hartrees-Bohrs-Radians)
 Update second derivatives using D2CorN and points    1    2
 DE= -5.15D-03 DEPred=-3.78D-03 R= 1.36D+00
 TightC=F SS=  1.41D+00  RLast= 2.09D-01 DXNew= 5.0454D-01 6.2757D-01
 Trust test= 1.36D+00 RLast= 2.09D-01 DXMaxT set to 5.05D-01
 ITU=  1  0
     Eigenvalues ---    0.08203   0.10007   0.12118   0.12154   0.12984
     Eigenvalues ---    0.14550   0.14733   0.15061   0.15312   0.16132
     Eigenvalues ---    0.17117   0.22732   0.23593   0.24180   0.24691
     Eigenvalues ---    0.25684   0.26126   0.28058   0.28622   0.30794
     Eigenvalues ---    0.31551
 RFO step:  Lambda=-2.67291930D-04 EMin= 8.20283413D-02
 Quartic linear search produced a step of  0.61656.
 TrRot= -0.000013  0.000440 -0.000013  0.000001  0.000029  0.000001
 Variable       Old X    -DE/DX   Delta X   Delta X   Delta X     New X
                                 (Linear)    (Quad)   (Total)
    X1        3.62934  -0.00289  -0.03313  -0.00336  -0.03647   3.59287
    Y1       -2.86497  -0.00026   0.01846  -0.01819   0.00071  -2.86426
    Z1        1.17544   0.00005  -0.01126   0.00281  -0.00857   1.16687
    X2       -3.61528   0.00330   0.03001  -0.00349   0.02656  -3.58872
    Y2        1.80844   0.00035  -0.01194   0.00718  -0.00432   1.80412
    Z2        2.04786  -0.00020  -0.01523   0.00498  -0.01016   2.03770
    X3        3.61198  -0.00325  -0.02978   0.00381  -0.02604   3.58594
    Y3        1.81005   0.00036  -0.01185   0.00728  -0.00413   1.80592
    Z3       -2.05366   0.00032   0.01573  -0.00430   0.01132  -2.04234
    X4       -1.96285   0.00361   0.02377   0.00335   0.02699  -1.93585
    Y4        1.89251  -0.00182  -0.01437  -0.00182  -0.01574   1.87676
    Z4       -3.97746   0.00440   0.03790   0.00290   0.04084  -3.93662
    X5        1.95786  -0.00354  -0.02356  -0.00296  -0.02643   1.93143
    Y5        1.89527  -0.00186  -0.01448  -0.00187  -0.01591   1.87936
    Z5        3.98015  -0.00440  -0.03790  -0.00294  -0.04091   3.93924
    X6       -3.62508   0.00291   0.03312   0.00338   0.03646  -3.58862
    Y6       -2.87075  -0.00029   0.01847  -0.01815   0.00076  -2.86999
    Z6       -1.17307  -0.00003   0.01134  -0.00269   0.00874  -1.16433
    X7        1.13561  -0.00197  -0.01220  -0.00119  -0.01351   1.12210
    Y7       -2.79949   0.00502   0.03291   0.01418   0.04753  -2.75196
    Z7       -3.67114   0.00337   0.02806  -0.00520   0.02281  -3.64832
    X8       -1.13040   0.00189   0.01195   0.00089   0.01293  -1.11746
    Y8       -2.79715   0.00503   0.03284   0.01400   0.04727  -2.74987
    Z8        3.67507  -0.00344  -0.02829   0.00500  -0.02327   3.65180
    X9        0.00082  -0.00005  -0.00017  -0.00031  -0.00050   0.00032
    Y9        5.17744  -0.00653  -0.05004  -0.00656  -0.05616   5.12128
    Z9        0.00225  -0.00008  -0.00035  -0.00045  -0.00081   0.00144
         Item               Value     Threshold  Converged?
 Maximum Force            0.006531     0.000450     NO 
 RMS     Force            0.002941     0.000300     NO 
 Maximum Displacement     0.056162     0.001800     NO 
 RMS     Displacement     0.026381     0.001200     NO 
 Predicted change in Energy=-1.099733D-03
 Lowest energy point so far.  Saving SCF results.
 GradGradGradGradGradGradGradGradGradGradGradGradGradGradGradGradGradGrad

 Leave Link  103 at Tue Mar  6 12:26:01 2018, MaxMem=   536870912 cpu:         0.1
 (Enter /share/apps//mg09/l202.exe)
                          Input orientation:                          
 ---------------------------------------------------------------------
 Center     Atomic      Atomic             Coordinates (Angstroms)
 Number     Number       Type             X           Y           Z
 ---------------------------------------------------------------------
      1         83           0        1.901267   -1.515702    0.617484
      2         83           0       -1.899070    0.954699    1.078304
      3         83           0        1.897597    0.955652   -1.080761
      4         50           0       -1.024408    0.993139   -2.083169
      5         50           0        1.022071    0.994513    2.084558
      6         83           0       -1.899017   -1.518732   -0.616136
      7         32           0        0.593791   -1.456274   -1.930610
[...]
     X       X X              X                    X                                                                                 
     X       X                X                    X                                                                                 
             X                X                                                                                                      
             X                X                                                                                                      
             X                X                                                                                                      
             X                X                                                                                                      
             X                X                                                                                                      
             X                X                                                                                                      
             X                X                                                                                                      
             X                X                                                                                                      
             X                X                                                                                                      
             X                X                                                                                                      
                              X                                                                                                      
                              X                                                                                                      
                              X                                                                                                      
 
 ***** Axes restored to original set *****
 -------------------------------------------------------------------
 Center     Atomic                   Forces (Hartrees/Bohr)
 Number     Number              X              Y              Z
 -------------------------------------------------------------------
      1       83          -0.000119012    0.000083077   -0.000076931
      2       83          -0.000040382   -0.000013633   -0.000148385
      3       83           0.000043501   -0.000008769    0.000183674
      4       50          -0.000034043   -0.000046635    0.000075338
      5       50           0.000051652   -0.000033888   -0.000101963
      6       83           0.000119227    0.000093266    0.000078120
      7       32           0.000014878   -0.000072816   -0.000159813
      8       32          -0.000025397   -0.000080541    0.000154365
      9       32          -0.000010424    0.000079939   -0.000004405
 -------------------------------------------------------------------
 Cartesian Forces:  Max     0.000183674 RMS     0.000087624
 Force constants in Cartesian coordinates: 
                1             2             3             4             5 
      1  0.609678D-01
      2 -0.194485D-01  0.681242D-01
      3 -0.278884D-02 -0.127458D-01  0.623936D-01
      4 -0.403297D-02  0.637583D-03  0.209898D-02  0.739883D-01
      5  0.688298D-03 -0.221505D-02 -0.282800D-02 -0.350757D-02  0.759617D-01
      6 -0.244000D-02 -0.132173D-02  0.410178D-03 -0.134159D-01  0.748169D-02
      7 -0.325922D-02  0.189709D-02  0.394539D-02 -0.662922D-02 -0.182438D-02
      8  0.111643D-02 -0.304887D-01  0.209991D-01  0.181650D-02  0.704369D-03
      9  0.292953D-02  0.234903D-01 -0.132909D-01  0.976247D-03  0.334764D-03
     10 -0.319980D-02 -0.186047D-03 -0.563631D-02 -0.137434D-02  0.267304D-02
     11 -0.167059D-02 -0.287491D-02  0.385115D-02  0.192473D-02  0.755681D-03
     12  0.523593D-05  0.786036D-03 -0.102141D-02  0.265239D-02  0.247192D-03
     13 -0.253410D-02  0.104923D-01  0.111535D-02 -0.250838D-01  0.803542D-03
     14  0.784500D-02 -0.216002D-01 -0.117697D-01  0.126224D-02  0.604729D-04
     15  0.195873D-02 -0.135920D-01 -0.921611D-02 -0.794844D-02 -0.310535D-02
     16 -0.687007D-02 -0.364432D-02 -0.187794D-02 -0.325478D-02 -0.108343D-02
     17  0.363267D-02  0.188230D-02  0.119309D-02 -0.186415D-02 -0.305339D-01
     18 -0.187733D-02 -0.119609D-02 -0.472123D-02  0.397135D-02 -0.209845D-01
     19 -0.818993D-02  0.296186D-02 -0.160817D-01  0.219377D-03  0.619859D-02
     20  0.336074D-02 -0.412584D-02 -0.237830D-03  0.178612D-02 -0.258114D-02
     21 -0.141276D-01  0.952269D-03 -0.271508D-01 -0.101684D-02 -0.109163D-02
     22 -0.335632D-01  0.259180D-02  0.196450D-01 -0.121342D-01  0.141193D-01
     23  0.525011D-02 -0.501065D-02  0.140449D-02  0.123535D-01 -0.227407D-01
     24  0.157954D-01  0.200781D-02 -0.687462D-02 -0.130750D-02  0.938740D-02
     25  0.681490D-03  0.469824D-02 -0.420008D-03 -0.216983D-01 -0.180674D-01
     26 -0.774181D-03 -0.369112D-02  0.133538D-03 -0.144090D-01 -0.194115D-01
     27  0.544809D-03  0.161922D-02 -0.528773D-03  0.139897D-01  0.105585D-01
                6             7             8             9            10 
      6  0.477863D-01
      7  0.978025D-03  0.739888D-01
      8 -0.335304D-03  0.350607D-02  0.760037D-01
      9 -0.485533D-02 -0.133994D-01 -0.749857D-02  0.477344D-01
     10  0.454501D-02 -0.250953D-01 -0.823137D-03 -0.105167D-01  0.433637D-01
     11  0.137690D-02 -0.128062D-02  0.611586D-04  0.279921D-02 -0.150549D-03
     12 -0.138989D-01 -0.794075D-02  0.309967D-02 -0.309826D-02  0.161311D-01
     13 -0.105242D-01 -0.136213D-02 -0.266935D-02  0.452603D-02 -0.451654D-02
     14 -0.280732D-02 -0.192297D-02  0.743209D-03 -0.137584D-02  0.150354D-02
     15 -0.310892D-02  0.262799D-02 -0.247353D-03 -0.138161D-01 -0.913181D-03
     16  0.295724D-02 -0.403011D-02 -0.689442D-03 -0.244258D-02 -0.250963D-02
     17 -0.234693D-01 -0.639214D-03 -0.221336D-02  0.132319D-02 -0.104617D-01
     18 -0.132464D-01  0.209601D-02  0.282875D-02  0.401114D-03  0.109920D-02
     19  0.575168D-02 -0.121174D-01 -0.141326D-01 -0.208505D-02 -0.488459D-02
     20 -0.927203D-03 -0.123658D-01 -0.228209D-01 -0.121399D-01  0.114608D-01
     21 -0.504700D-02 -0.128851D-02 -0.937772D-02 -0.217912D-02 -0.244832D-02
     22 -0.210316D-02  0.227577D-03 -0.619458D-02  0.575516D-02  0.807779D-03
     23  0.121401D-01 -0.178568D-02 -0.258781D-02  0.931827D-03  0.109916D-02
     24 -0.220133D-02 -0.101835D-02  0.108936D-02 -0.504955D-02  0.481800D-02
     25  0.142513D-01 -0.217229D-01  0.180701D-01  0.142567D-01 -0.259130D-02
     26  0.786221D-02  0.144155D-01 -0.194016D-01 -0.786492D-02 -0.511516D-02
     27 -0.583857D-02  0.139996D-01 -0.105579D-01 -0.584627D-02 -0.707885D-02
               11            12            13            14            15 
     11  0.511057D-01
     12 -0.107638D-01  0.546433D-01
     13 -0.151272D-02 -0.915390D-03  0.433655D-01
     14  0.743173D-03  0.259217D-02  0.163802D-03  0.511908D-01
     15 -0.259780D-02 -0.539206D-02  0.161402D-01  0.107762D-01  0.545779D-01
     16 -0.781904D-02  0.194252D-02 -0.320555D-02  0.167202D-02  0.718823D-05
     17 -0.216099D-01  0.135893D-01  0.185963D-03 -0.287477D-02 -0.788322D-03
     18  0.117702D-01 -0.921923D-02 -0.563488D-02 -0.385727D-02 -0.102123D-02
     19  0.106432D-01 -0.266611D-02  0.811560D-03 -0.532604D-02 -0.185309D-02
     20 -0.140000D-01 -0.115130D-02 -0.109737D-02 -0.230709D-02 -0.101047D-02
     21  0.951073D-03 -0.246547D-02  0.482460D-02 -0.374956D-02 -0.528639D-02
     22  0.532743D-02 -0.185863D-02 -0.487355D-02 -0.106644D-01 -0.266448D-02
     23 -0.229672D-02  0.100877D-02 -0.114835D-01 -0.140737D-01  0.114632D-02
     24  0.375371D-02 -0.528758D-02 -0.244681D-02 -0.959593D-03 -0.246006D-02
     25 -0.546187D-02 -0.735039D-02 -0.260135D-02  0.546678D-02 -0.735488D-02
     26 -0.118842D-01 -0.940804D-02  0.511731D-02 -0.118820D-01  0.941877D-02
     27 -0.111407D-01 -0.142604D-01 -0.708492D-02  0.111510D-01 -0.142771D-01
               16            17            18            19            20 
     16  0.609237D-01
     17  0.194349D-01  0.681992D-01
     18 -0.281257D-02  0.127482D-01  0.623419D-01
     19 -0.335612D-01 -0.261722D-02  0.196500D-01  0.619621D-01
     20 -0.527522D-02 -0.502055D-02 -0.138228D-02  0.187600D-02  0.524452D-01
     21  0.158039D-01 -0.198872D-02 -0.686750D-02 -0.887648D-03  0.168419D-01
     22 -0.818047D-02 -0.297785D-02 -0.160776D-01 -0.179480D-02 -0.956898D-03
     23 -0.337435D-02 -0.413479D-02  0.203950D-03  0.958137D-03  0.151412D-02
     24 -0.141255D-01 -0.989612D-03 -0.271373D-01 -0.161232D-03  0.357907D-02
     25  0.688144D-03 -0.469345D-02 -0.414188D-03 -0.244503D-02  0.121160D-02
     26  0.778849D-03 -0.369421D-02 -0.130875D-03 -0.561947D-03 -0.310389D-02
     27  0.547821D-03 -0.161777D-02 -0.530104D-03 -0.166690D-02 -0.357193D-02
               21            22            23            24            25 
     21  0.539620D-01
     22 -0.163132D-03  0.619603D-01
     23 -0.358097D-02 -0.180752D-02  0.524346D-01
     24 -0.362829D-02 -0.862913D-03 -0.168257D-01  0.539766D-01
     25 -0.696436D-03 -0.244938D-02 -0.120994D-02 -0.691096D-03  0.521386D-01
     26  0.104337D-02  0.562679D-03 -0.310441D-02 -0.104247D-02 -0.140589D-04
     27 -0.133745D-02 -0.167028D-02  0.357123D-02 -0.133784D-02 -0.115810D-01
               26            27 
     26  0.761730D-01
     27 -0.115827D-04  0.439564D-01
 Leave Link  716 at Tue Mar  6 14:18:10 2018, MaxMem=   536870912 cpu:         0.1
 (Enter /share/apps//mg09/l103.exe)

 GradGradGradGradGradGradGradGradGradGradGradGradGradGradGradGradGradGrad
 Berny optimization.
 Search for a local minimum.
 Step number   1 out of a maximum of    2
 All quantities printed in internal units (Hartrees-Bohrs-Radians)
 Second derivative matrix not updated -- analytic derivatives used.
 ITU=  0
     Eigenvalues ---    0.00935   0.01664   0.03320   0.03574   0.04515
     Eigenvalues ---    0.04962   0.05149   0.05558   0.05790   0.06044
     Eigenvalues ---    0.06293   0.06570   0.08859   0.09156   0.09776
     Eigenvalues ---    0.11517   0.11573   0.11910   0.12632   0.14077
     Eigenvalues ---    0.14377
 Angle between quadratic step and forces=  46.19 degrees.
 Linear search not attempted -- first point.
 TrRot= -0.000024  0.000227 -0.000008  0.000003  0.000001  0.000003
 Variable       Old X    -DE/DX   Delta X   Delta X   Delta X     New X
                                 (Linear)    (Quad)   (Total)
    X1        3.58574  -0.00012   0.00000  -0.01037  -0.01038   3.57536
    Y1       -2.89497   0.00008   0.00000  -0.00584  -0.00559  -2.90056
    Z1        1.15789  -0.00008   0.00000  -0.00417  -0.00418   1.15371
    X2       -3.61478  -0.00004   0.00000  -0.00204  -0.00207  -3.61685
    Y2        1.81491  -0.00001   0.00000  -0.00023  -0.00003   1.81488
    Z2        2.03093  -0.00015   0.00000  -0.00572  -0.00572   2.02520
    X3        3.61322   0.00004   0.00000   0.00245   0.00241   3.61563
    Y3        1.81718  -0.00001   0.00000   0.00010   0.00035   1.81752
    Z3       -2.03229   0.00018   0.00000   0.00753   0.00752  -2.02477
    X4       -1.93328  -0.00003   0.00000  -0.00301  -0.00305  -1.93633
    Y4        1.86355  -0.00005   0.00000  -0.00142  -0.00120   1.86235
    Z4       -3.92263   0.00008   0.00000   0.00342   0.00342  -3.91921
    X5        1.93082   0.00005   0.00000   0.00429   0.00426   1.93508
    Y5        1.86676  -0.00003   0.00000  -0.00079  -0.00055   1.86620
    Z5        3.92419  -0.00010   0.00000  -0.00463  -0.00464   3.91955
    X6       -3.58186   0.00012   0.00000   0.01000   0.00999  -3.57188
    Y6       -2.89992   0.00009   0.00000  -0.00496  -0.00475  -2.90467
    Z6       -1.15519   0.00008   0.00000   0.00418   0.00417  -1.15102
    X7        1.11365   0.00001   0.00000   0.00259   0.00258   1.11622
    Y7       -2.71125  -0.00007   0.00000   0.00489   0.00512  -2.70613
    Z7       -3.65728  -0.00016   0.00000  -0.01180  -0.01181  -3.66909
    X8       -1.11011  -0.00003   0.00000  -0.00282  -0.00283  -1.11294
    Y8       -2.71016  -0.00008   0.00000   0.00448   0.00470  -2.70546
    Z8        3.66001   0.00015   0.00000   0.01167   0.01167   3.67168
    X9       -0.00138  -0.00001   0.00000  -0.00085  -0.00090  -0.00228
    Y9        5.10526   0.00008   0.00000   0.00172   0.00195   5.10721
    Z9       -0.00018   0.00000   0.00000  -0.00042  -0.00043  -0.00061
         Item               Value     Threshold  Converged?
 Maximum Force            0.000184     0.000450     YES
 RMS     Force            0.000088     0.000300     YES
 Maximum Displacement     0.011805     0.001800     NO 
 RMS     Displacement     0.005448     0.001200     NO 
 Predicted change in Energy=-4.461997D-06
 GradGradGradGradGradGradGradGradGradGradGradGradGradGradGradGradGradGrad

 Leave Link  103 at Tue Mar  6 14:18:10 2018, MaxMem=   536870912 cpu:         0.1
 (Enter /share/apps//mg09/l9999.exe)
 1\1\GINC-COMPUTE-0-5\Freq\RPBE1PBE\def2TZVP\Bi4Ge3Sn2\RODRIGO\06-Mar-2
 018\0\\#P Geom=AllCheck Guess=TCheck SCRF=Check GenChk RPBE1PBE/def2TZ
 VP Freq\\01Final_coords.xyz_12\\0,1\Bi,1.8974937625,-1.5319501218,0.61
 27294311\Bi,-1.9128591257,0.960408262,1.0747201689\Bi,1.9120320526,0.9
 616094344,-1.0754430309\Sn,-1.0230488997,0.9861494699,-2.0757639119\Sn
 ,1.0217478818,0.9878442311,2.0765903101\Bi,-1.8954394054,-1.5345732394
 ,-0.6112996155\Ge,0.5893158472,-1.4347333956,-1.9353508147\Ge,-0.58744
 50531,-1.4341546391,1.9367948846\Ge,-0.0007310603,2.7015889984,-0.0000
 964216\\Version=ES64L-G09RevD.01\State=1-A\HF=-7517.8232472\RMSD=3.272
 e-09\RMSF=8.762e-05\ZeroPoint=0.0058431\Thermal=0.0232913\Dipole=-0.00
 04216,0.0722252,-0.0001387\DipoleDeriv=0.0296574,-0.1309137,0.081819,0
 .0127352,-0.0523527,-0.0250467,0.0094053,-0.0001734,-0.1816985,0.09963
 64,-0.0737936,-0.0649808,-0.028134,-0.0517696,0.0257682,-0.0005143,0.0
 05035,0.0415906,0.0994629,0.0738929,-0.0649724,0.0282889,-0.0517445,-0
 .0256485,-0.0004203,-0.0048283,0.0419978,0.1356178,-0.055818,0.1115206
 ,-0.0501425,0.0803248,-0.1194331,0.0549152,-0.0595288,0.2287488,0.1355
 012,0.0558707,0.1112477,0.0502286,0.0804845,0.1196047,0.0545426,0.0594
 29,0.2286226,0.0297136,0.1310717,0.0817369,-0.0126053,-0.0519621,0.024
 8998,0.0093859,0.0000751,-0.1813926,-0.1646038,-0.0693838,-0.1136442,0
 .001969,-0.0616017,0.0340643,-0.0510243,0.0676278,0.0218788,-0.1647319
 ,0.0692939,-0.1135486,-0.0022593,-0.0616657,-0.0342027,-0.0508313,-0.0
 675446,0.0219275,-0.2002536,-0.00022,-0.0291782,-0.0000807,0.1702869,-
 0.000006,-0.0254587,-0.0000917,-0.2216751\Polar=375.3003311,0.0080799,
 373.0173799,10.1816311,0.0120342,378.7340452\PG=C01 [X(Bi4Ge3Sn2)]\NIm
 ag=0\\0.06096784,-0.01944848,0.06812421,-0.00278884,-0.01274583,0.0623
 9361,-0.00403297,0.00063758,0.00209898,0.07398829,0.00068830,-0.002215
 05,-0.00282800,-0.00350757,0.07596174,-0.00244000,-0.00132173,0.000410
 18,-0.01341593,0.00748169,0.04778632,-0.00325922,0.00189709,0.00394539
 ,-0.00662922,-0.00182438,0.00097802,0.07398876,0.00111643,-0.03048875,
 0.02099911,0.00181650,0.00070437,-0.00033530,0.00350607,0.07600368,0.0
 0292953,0.02349027,-0.01329086,0.00097625,0.00033476,-0.00485533,-0.01
 339938,-0.00749857,0.04773435,-0.00319980,-0.00018605,-0.00563631,-0.0
 0137434,0.00267304,0.00454501,-0.02509531,-0.00082314,-0.01051665,0.04
 336374,-0.00167059,-0.00287491,0.00385115,0.00192473,0.00075568,0.0013
 7690,-0.00128062,0.00006116,0.00279921,-0.00015055,0.05110573,0.000005
 24,0.00078604,-0.00102141,0.00265239,0.00024719,-0.01389891,-0.0079407
 5,0.00309967,-0.00309826,0.01613111,-0.01076378,0.05464328,-0.00253410
 ,0.01049228,0.00111535,-0.02508383,0.00080354,-0.01052416,-0.00136213,
 -0.00266935,0.00452603,-0.00451654,-0.00151272,-0.00091539,0.04336549,
 0.00784500,-0.02160020,-0.01176971,0.00126224,0.00006047,-0.00280732,-
 0.00192297,0.00074321,-0.00137584,0.00150354,0.00074317,0.00259217,0.0
 0016380,0.05119084,0.00195873,-0.01359195,-0.00921611,-0.00794844,-0.0
 0310535,-0.00310892,0.00262799,-0.00024735,-0.01381607,-0.00091318,-0.
 00259780,-0.00539206,0.01614017,0.01077616,0.05457790,-0.00687007,-0.0
 0364432,-0.00187794,-0.00325478,-0.00108343,0.00295724,-0.00403011,-0.
 00068944,-0.00244258,-0.00250963,-0.00781904,0.00194252,-0.00320555,0.
 00167202,0.00000719,0.06092370,0.00363267,0.00188230,0.00119309,-0.001
 86415,-0.03053386,-0.02346930,-0.00063921,-0.00221336,0.00132319,-0.01
 046168,-0.02160994,0.01358928,0.00018596,-0.00287477,-0.00078832,0.019
 43493,0.06819918,-0.00187733,-0.00119609,-0.00472123,0.00397135,-0.020
 98453,-0.01324644,0.00209601,0.00282875,0.00040111,0.00109920,0.011770
 19,-0.00921923,-0.00563488,-0.00385727,-0.00102123,-0.00281257,0.01274
 816,0.06234192,-0.00818993,0.00296186,-0.01608167,0.00021938,0.0061985
 9,0.00575168,-0.01211744,-0.01413260,-0.00208505,-0.00488459,0.0106432
 3,-0.00266611,0.00081156,-0.00532604,-0.00185309,-0.03356123,-0.002617
 22,0.01965002,0.06196208,0.00336074,-0.00412584,-0.00023783,0.00178612
 ,-0.00258114,-0.00092720,-0.01236581,-0.02282086,-0.01213993,0.0114608
 2,-0.01399997,-0.00115130,-0.00109737,-0.00230709,-0.00101047,-0.00527
 522,-0.00502055,-0.00138228,0.00187600,0.05244523,-0.01412758,0.000952
 27,-0.02715078,-0.00101684,-0.00109163,-0.00504700,-0.00128851,-0.0093
 7772,-0.00217912,-0.00244832,0.00095107,-0.00246547,0.00482460,-0.0037
 4956,-0.00528639,0.01580386,-0.00198872,-0.00686750,-0.00088765,0.0168
 4188,0.05396199,-0.03356324,0.00259180,0.01964505,-0.01213424,0.014119
 31,-0.00210316,0.00022758,-0.00619458,0.00575516,0.00080778,0.00532743
 ,-0.00185863,-0.00487355,-0.01066438,-0.00266448,-0.00818047,-0.002977
 85,-0.01607761,-0.00179480,-0.00095690,-0.00016313,0.06196031,0.005250
 11,-0.00501065,0.00140449,0.01235353,-0.02274068,0.01214007,-0.0017856
 8,-0.00258781,0.00093183,0.00109916,-0.00229672,0.00100877,-0.01148346
 ,-0.01407366,0.00114632,-0.00337435,-0.00413479,0.00020395,0.00095814,
 0.00151412,-0.00358097,-0.00180752,0.05243459,0.01579545,0.00200781,-0
 .00687462,-0.00130750,0.00938740,-0.00220133,-0.00101835,0.00108936,-0
 .00504955,0.00481800,0.00375371,-0.00528758,-0.00244681,-0.00095959,-0
 .00246006,-0.01412554,-0.00098961,-0.02713730,-0.00016123,0.00357907,-
 0.00362829,-0.00086291,-0.01682568,0.05397655,0.00068149,0.00469824,-0
 .00042001,-0.02169827,-0.01806741,0.01425129,-0.02172290,0.01807011,0.
 01425669,-0.00259130,-0.00546187,-0.00735039,-0.00260135,0.00546678,-0
 .00735488,0.00068814,-0.00469345,-0.00041419,-0.00244503,0.00121160,-0
 .00069644,-0.00244938,-0.00120994,-0.00069110,0.05213860,-0.00077418,-
 0.00369112,0.00013354,-0.01440899,-0.01941153,0.00786221,0.01441550,-0
 .01940164,-0.00786492,-0.00511516,-0.01188421,-0.00940804,0.00511731,-
 0.01188197,0.00941877,0.00077885,-0.00369421,-0.00013088,-0.00056195,-
 0.00310389,0.00104337,0.00056268,-0.00310441,-0.00104247,-0.00001406,0
 .07617298,0.00054481,0.00161922,-0.00052877,0.01398974,0.01055846,-0.0
 0583857,0.01399957,-0.01055794,-0.00584627,-0.00707885,-0.01114066,-0.
 01426037,-0.00708492,0.01115097,-0.01427707,0.00054782,-0.00161777,-0.
 00053010,-0.00166690,-0.00357193,-0.00133745,-0.00167028,0.00357123,-0
 .00133784,-0.01158100,-0.00001158,0.04395644\\0.00011901,-0.00008308,0
 .00007693,0.00004038,0.00001363,0.00014838,-0.00004350,0.00000877,-0.0
 0018367,0.00003404,0.00004664,-0.00007534,-0.00005165,0.00003389,0.000
 10196,-0.00011923,-0.00009327,-0.00007812,-0.00001488,0.00007282,0.000
 15981,0.00002540,0.00008054,-0.00015437,0.00001042,-0.00007994,0.00000
 441\\\@


 EXPERIENCE IS A WONDERFUL THING.  IT ENABLES
 YOU TO RECOGNIZE A MISTAKE WHEN YOU MAKE IT AGAIN.
           - BACK OF A SUGAR PACKET
 Job cpu time:       0 days  3 hours 43 minutes 27.8 seconds.
 File lengths (MBytes):  RWF=    299 Int=      0 D2E=      0 Chk=     16 Scr=      1
 Normal termination of Gaussian 09 at Tue Mar  6 14:18:12 2018.
