 Entering Gaussian System, Link 0=/share/apps/mg09/g09
 Initial command:
 /share/apps//mg09/l1.exe "/state/partition1/gauss_tmp/Gau-491.inp" -scrdir="/state/partition1/gauss_tmp/"
 Entering Link 1 = /share/apps//mg09/l1.exe PID=       497.
  
 Copyright (c) 1988,1990,1992,1993,1995,1998,2003,2009,2013,
            Gaussian, Inc.  All Rights Reserved.
  
 This is part of the Gaussian(R) 09 program.  It is based on
 the Gaussian(R) 03 system (copyright 2003, Gaussian, Inc.),
 the Gaussian(R) 98 system (copyright 1998, Gaussian, Inc.),
 the Gaussian(R) 94 system (copyright 1995, Gaussian, Inc.),
 the Gaussian 92(TM) system (copyright 1992, Gaussian, Inc.),
 the Gaussian 90(TM) system (copyright 1990, Gaussian, Inc.),
 the Gaussian 88(TM) system (copyright 1988, Gaussian, Inc.),
 the Gaussian 86(TM) system (copyright 1986, Carnegie Mellon
 University), and the Gaussian 82(TM) system (copyright 1983,
 Carnegie Mellon University). Gaussian is a federally registered
 trademark of Gaussian, Inc.
  
 This software contains proprietary and confidential information,
 including trade secrets, belonging to Gaussian, Inc.
  
 This software is provided under written license and may be
 used, copied, transmitted, or stored only in accord with that
 written license.
  
 The following legend is applicable only to US Government
 contracts under FAR:
  
                    RESTRICTED RIGHTS LEGEND
  
 Use, reproduction and disclosure by the US Government is
 subject to restrictions as set forth in subparagraphs (a)
 and (c) of the Commercial Computer Software - Restricted
 Rights clause in FAR 52.227-19.
  
 Gaussian, Inc.
 340 Quinnipiac St., Bldg. 40, Wallingford CT 06492
  
  
 ---------------------------------------------------------------
 Warning -- This program may not be used in any manner that
 competes with the business of Gaussian, Inc. or will provide
 assistance to any competitor of Gaussian, Inc.  The licensee
 of this program is prohibited from giving any competitor of
 Gaussian, Inc. access to this program.  By using this program,
 the user acknowledges that Gaussian, Inc. is engaged in the
 business of creating and licensing software in the field of
 computational chemistry and represents and warrants to the
 licensee that it is not a competitor of Gaussian, Inc. and that
 it will not use this program in any manner prohibited above.
 ---------------------------------------------------------------
  

 Cite this work as:
 Gaussian 09, Revision D.01,
 M. J. Frisch, G. W. Trucks, H. B. Schlegel, G. E. Scuseria, 
 M. A. Robb, J. R. Cheeseman, G. Scalmani, V. Barone, B. Mennucci, 
 G. A. Petersson, H. Nakatsuji, M. Caricato, X. Li, H. P. Hratchian, 
 A. F. Izmaylov, J. Bloino, G. Zheng, J. L. Sonnenberg, M. Hada, 
 M. Ehara, K. Toyota, R. Fukuda, J. Hasegawa, M. Ishida, T. Nakajima, 
 Y. Honda, O. Kitao, H. Nakai, T. Vreven, J. A. Montgomery, Jr., 
 J. E. Peralta, F. Ogliaro, M. Bearpark, J. J. Heyd, E. Brothers, 
 K. N. Kudin, V. N. Staroverov, T. Keith, R. Kobayashi, J. Normand, 
 K. Raghavachari, A. Rendell, J. C. Burant, S. S. Iyengar, J. Tomasi, 
 M. Cossi, N. Rega, J. M. Millam, M. Klene, J. E. Knox, J. B. Cross, 
 V. Bakken, C. Adamo, J. Jaramillo, R. Gomperts, R. E. Stratmann, 
 O. Yazyev, A. J. Austin, R. Cammi, C. Pomelli, J. W. Ochterski, 
 R. L. Martin, K. Morokuma, V. G. Zakrzewski, G. A. Voth, 
 P. Salvador, J. J. Dannenberg, S. Dapprich, A. D. Daniels, 
 O. Farkas, J. B. Foresman, J. V. Ortiz, J. Cioslowski, 
 and D. J. Fox, Gaussian, Inc., Wallingford CT, 2013.
 
 ******************************************
 Gaussian 09:  ES64L-G09RevD.01 24-Apr-2013
                 6-Mar-2018 
 ******************************************
 %NProcShared=4
 Will use up to    4 processors via shared memory.
 %LindaWorkers=compute-0-5
 %chk=Isomer_15.chk
 %NProc=4
 Will use up to    4 processors via shared memory.
 %mem=4GB
 SetLPE:  input flags=" -vv -opt "Tsnet.Node.lindarsharg: ssh" "
 SetLPE:    new flags=" -vv -opt "Tsnet.Node.lindarsharg: ssh"  -nodelist 'compute-0-5.local'"
 Will use up to    1 processors via Linda.
 ----------------------------------------------------------------------
 #p PBE1PBE/Def2TZVP scf=(maxcycle=768) opt=(cartesian,maxcycle=512) fr
 eq
 ----------------------------------------------------------------------
 1/6=512,10=7,14=-1,18=10,26=3,38=1/1,3;
 2/12=2,17=6,18=5,29=2,40=1/2;
 3/5=44,7=101,11=2,16=1,25=1,30=1,71=1,74=-13/1,2,3;
 4//1;
 5/5=2,7=768,38=5/2;
 6/7=2,8=2,9=2,10=2,28=1/1;
 7/7=1,29=1/1,2,3,16;
 1/6=512,10=7,14=-1,18=10,26=3/3(2);
 2/29=1/2;
 99/12=1/99;
 2/29=1/2;
 3/5=44,7=101,11=2,16=1,25=1,30=1,71=1,74=-13/1,2,3;
 4/5=5,16=3,69=1/1;
 5/5=2,7=768,38=5/2;
 7/7=1/1,2,3,16;
 1/6=512,14=-1,18=10,26=3/3(-5);
 2/29=1/2;
 6/7=2,8=2,9=2,10=2,19=2,28=1/1;
 99/9=1,12=1/99;
 Leave Link    1 at Tue Mar  6 11:56:29 2018, MaxMem=   536870912 cpu:         0.5
 (Enter /share/apps//mg09/l101.exe)
 ---------------------
 01Final_coords.xyz_15
 ---------------------
 Symbolic Z-matrix:
 Charge =  0 Multiplicity = 1
 50                    1.60031   1.38591   1.62844 
 32                   -1.20382   1.723     2.08621 
 32                   -0.61342  -0.93685   2.20248 
 50                   -0.45532   2.5771   -0.67937 
 83                   -2.50346   0.27952  -0.01537 
 32                   -0.7519    0.03135  -2.38877 
 83                    1.88333   0.76305  -1.40193 
 83                   -0.878    -2.22561  -0.53751 
 83                    1.79888  -1.5195    0.65058 
 
 NAtoms=      9 NQM=        9 NQMF=       0 NMMI=      0 NMMIF=      0
                NMic=       0 NMicF=      0.
                    Isotopes and Nuclear Properties:
 (Nuclear quadrupole moments (NQMom) in fm**2, nuclear magnetic moments (NMagM)
  in nuclear magnetons)

  Atom         1           2           3           4           5           6           7           8           9
 IAtWgt=         118          74          74         118         209          74         209         209         209
 AtmWgt= 117.9018000  73.9211788  73.9211788 117.9018000 208.9804000  73.9211788 208.9804000 208.9804000 208.9804000
 NucSpn=           0           0           0           0           9           0           9           9           9
 AtZEff=   0.0000000   0.0000000   0.0000000   0.0000000   0.0000000   0.0000000   0.0000000   0.0000000   0.0000000
 NQMom=    0.0000000   0.0000000   0.0000000   0.0000000 -51.6000000   0.0000000 -51.6000000 -51.6000000 -51.6000000
 NMagM=    0.0000000   0.0000000   0.0000000   0.0000000   4.1106000   0.0000000   4.1106000   4.1106000   4.1106000
 AtZNuc=  50.0000000  32.0000000  32.0000000  50.0000000  83.0000000  32.0000000  83.0000000  83.0000000  83.0000000
 Leave Link  101 at Tue Mar  6 11:56:42 2018, MaxMem=   536870912 cpu:         0.3
 (Enter /share/apps//mg09/l103.exe)

 GradGradGradGradGradGradGradGradGradGradGradGradGradGradGradGradGradGrad
 Berny optimization.
 Initialization pass.
 No Z-matrix variables, so optimization will use Cartesian coordinates.
 Trust Radius=3.00D-01 FncErr=1.00D-07 GrdErr=1.00D-06
 Number of steps in this run=    100 maximum allowed number of steps=    100.
 GradGradGradGradGradGradGradGradGradGradGradGradGradGradGradGradGradGrad

 Leave Link  103 at Tue Mar  6 11:57:12 2018, MaxMem=   536870912 cpu:         0.1
 (Enter /share/apps//mg09/l202.exe)
 ---------------------------------------------------------------------------------------------------
                            Z-MATRIX (ANGSTROMS AND DEGREES)
   CD    Cent   Atom    N1       Length/X        N2       Alpha/Y        N3        Beta/Z          J
 ---------------------------------------------------------------------------------------------------
      1      1  Sn       0   1.600312          1.385912          1.628437
      2      2  Ge       0  -1.203815          1.723003          2.086212
      3      3  Ge       0  -0.613416         -0.936852          2.202484
      4      4  Sn       0  -0.455318          2.577103         -0.679372
      5      5  Bi       0  -2.503459          0.279518         -0.015372
      6      6  Ge       0  -0.751900          0.031345         -2.388770
      7      7  Bi       0   1.883330          0.763052         -1.401926
      8      8  Bi       0  -0.877995         -2.225608         -0.537508
      9      9  Bi       0   1.798877         -1.519500          0.650578
 ---------------------------------------------------------------------------------------------------
                         Z-Matrix orientation:                         
 ---------------------------------------------------------------------
 Center     Atomic      Atomic             Coordinates (Angstroms)
 Number     Number       Type             X           Y           Z
 ---------------------------------------------------------------------
      1         50           0        1.600312    1.385912    1.628437
      2         32           0       -1.203815    1.723003    2.086212
      3         32           0       -0.613416   -0.936852    2.202484
      4         50           0       -0.455318    2.577103   -0.679372
      5         83           0       -2.503459    0.279518   -0.015372
      6         32           0       -0.751900    0.031345   -2.388770
      7         83           0        1.883330    0.763052   -1.401926
      8         83           0       -0.877995   -2.225608   -0.537508
      9         83           0        1.798877   -1.519500    0.650578
 ---------------------------------------------------------------------
                    Distance matrix (angstroms):
                    1          2          3          4          5
     1  Sn   0.000000
     2  Ge   2.861174   0.000000
     3  Ge   3.259656   2.727071   0.000000
     4  Sn   3.312180   2.989680   4.547303   0.000000
     5  Bi   4.557099   2.861709   3.157642   3.148758   0.000000
     6  Ge   4.848268   4.805351   4.694273   3.080728   2.960163
     7  Bi   3.106631   4.755952   4.702679   3.046660   4.626041
     8  Bi   4.886348   4.752009   3.039482   4.823361   3.031570
     9  Bi   3.071979   4.646615   2.926952   4.861308   4.710632
                    6          7          8          9
     6  Ge   0.000000
     7  Bi   2.907524   0.000000
     8  Bi   2.921799   4.159834   0.000000
     9  Bi   4.260190   3.070822   3.012604   0.000000
 Stoichiometry    Bi4Ge3Sn2
 Framework group  C1[X(Bi4Ge3Sn2)]
 Deg. of freedom    21
 Full point group                 C1      NOp   1
 Largest Abelian subgroup         C1      NOp   1
 Largest concise Abelian subgroup C1      NOp   1
                         Standard orientation:                         
 ---------------------------------------------------------------------
 Center     Atomic      Atomic             Coordinates (Angstroms)
 Number     Number       Type             X           Y           Z
 ---------------------------------------------------------------------
      1         50           0       -1.600313   -1.385911    1.628437
      2         32           0        1.203814   -1.723004    2.086212
      3         32           0        0.613417    0.936852    2.202484
      4         50           0        0.455316   -2.577103   -0.679372
      5         83           0        2.503459   -0.279520   -0.015372
      6         32           0        0.751900   -0.031346   -2.388770
      7         83           0       -1.883330   -0.763051   -1.401926
      8         83           0        0.877996    2.225607   -0.537508
      9         83           0       -1.798876    1.519501    0.650578
 ---------------------------------------------------------------------
 Rotational constants (GHZ):      0.1015446      0.0932489      0.0797103
 Leave Link  202 at Tue Mar  6 11:57:17 2018, MaxMem=   536870912 cpu:         0.1
 (Enter /share/apps//mg09/l301.exe)
 Standard basis: def2TZVP (5D, 7F)
 Ernie: Thresh=  0.10000D-02 Tol=  0.10000D-05 Strict=F.
 There are   519 symmetry adapted cartesian basis functions of A   symmetry.
 There are   444 symmetry adapted basis functions of A   symmetry.
   444 basis functions,   963 primitive gaussians,   519 cartesian basis functions
   116 alpha electrons      116 beta electrons
       nuclear repulsion energy      3528.4916040100 Hartrees.
 IExCor= 1009 DFT=T Ex+Corr=PBE1PBE ExCW=0 ScaHFX=  0.250000
 ScaDFX=  0.750000  0.750000  1.000000  1.000000 ScalE2=  1.000000  1.000000
 IRadAn=      0 IRanWt=     -1 IRanGd=            0 ICorTp=0 IEmpDi=  4
 NAtoms=    9 NActive=    9 NUniq=    9 SFac= 1.00D+00 NAtFMM=   60 NAOKFM=F Big=F
 Integral buffers will be    131072 words long.
 Raffenetti 2 integral format.
 Two-electron integral symmetry is turned on.
 Leave Link  301 at Tue Mar  6 11:57:27 2018, MaxMem=   536870912 cpu:         0.3
 (Enter /share/apps//mg09/l302.exe)
 NPDir=0 NMtPBC=     1 NCelOv=     1 NCel=       1 NClECP=     1 NCelD=      1
         NCelK=      1 NCelE2=     1 NClLst=     1 CellRange=     0.0.
 One-electron integrals computed using PRISM.
   1 Symmetry operations used in ECPInt.
 ECPInt:  NShTT=   10440 NPrTT=   41973 LenC2=    9666 LenP2D=   27473.
 LDataN:  DoStor=T MaxTD1= 8 Len=  415
 NBasis=   444 RedAO= T EigKep=  1.59D-03  NBF=   444
 NBsUse=   444 1.00D-06 EigRej= -1.00D+00 NBFU=   444
 Precomputing XC quadrature grid using
 IXCGrd= 4 IRadAn=           0 IRanWt=          -1 IRanGd=           0 AccXCQ= 0.00D+00.
 Defaulting to unpruned grid for atomic number  50.
 Defaulting to unpruned grid for atomic number  50.
 Defaulting to unpruned grid for atomic number  83.
 Generated NRdTot=       0 NPtTot=           0 NUsed=           0 NTot=          32
 NSgBfM=   505   505   505   505   505 MxSgAt=     9 MxSgA2=     9.
 Leave Link  302 at Tue Mar  6 11:57:37 2018, MaxMem=   536870912 cpu:        25.4
 (Enter /share/apps//mg09/l303.exe)
 DipDrv:  MaxL=1.
 Leave Link  303 at Tue Mar  6 11:57:48 2018, MaxMem=   536870912 cpu:         0.3
 (Enter /share/apps//mg09/l401.exe)
 ExpMin= 4.62D-02 ExpMax= 4.66D+05 ExpMxC= 4.50D+03 IAcc=2 IRadAn=         4 AccDes= 0.00D+00
 Harris functional with IExCor= 1009 and IRadAn=       4 diagonalized for initial guess.
 HarFok:  IExCor= 1009 AccDes= 0.00D+00 IRadAn=         4 IDoV= 1 UseB2=F ITyADJ=14
 ICtDFT=  3500011 ScaDFX=  1.000000  1.000000  1.000000  1.000000
 Defaulting to unpruned grid for atomic number  50.
 Defaulting to unpruned grid for atomic number  50.
 Defaulting to unpruned grid for atomic number  50.
 Defaulting to unpruned grid for atomic number  50.
 FoFCou: FMM=F IPFlag=           0 FMFlag=      100000 FMFlg1=           0
         NFxFlg=           0 DoJE=T BraDBF=F KetDBF=T FulRan=T
         wScrn=  0.000000 ICntrl=     500 IOpCl=  0 I1Cent=   200000004 NGrid=           0
         NMat0=    1 NMatS0=      1 NMatT0=    0 NMatD0=    1 NMtDS0=    0 NMtDT0=    0
 Petite list used in FoFCou.
 Harris En= -7518.60618808150    
 JPrj=0 DoOrth=F DoCkMO=F.
 Leave Link  401 at Tue Mar  6 11:57:58 2018, MaxMem=   536870912 cpu:         9.9
 (Enter /share/apps//mg09/l502.exe)
 Closed shell SCF:
 Using DIIS extrapolation, IDIIS=  1040.
 Integral symmetry usage will be decided dynamically.
 IVT=     1410107 IEndB=     1410107 NGot=   536870912 MDV=   536322046
 LenX=   536322046 LenY=   536052166
 Requested convergence on RMS density matrix=1.00D-08 within 768 cycles.
 Requested convergence on MAX density matrix=1.00D-06.
 Requested convergence on             energy=1.00D-06.
 No special actions if energy rises.
 Fock matrices will be formed incrementally for  20 cycles.

 Cycle   1  Pass 1  IDiag  1:
 FoFJK:  IHMeth= 1 ICntrl=       0 DoSepK=F KAlg= 0 I1Cent=   0 FoldK=F
 IRaf= 880000000 NMat=   1 IRICut=       1 DoRegI=T DoRafI=F ISym2E= 0.
 FoFCou: FMM=F IPFlag=           0 FMFlag=      100000 FMFlg1=           0
         NFxFlg=           0 DoJE=F BraDBF=F KetDBF=F FulRan=T
         wScrn=  0.000000 ICntrl=       0 IOpCl=  0 I1Cent=           0 NGrid=           0
         NMat0=    1 NMatS0=      1 NMatT0=    0 NMatD0=    1 NMtDS0=    0 NMtDT0=    0
 Symmetry not used in FoFCou.
 Defaulting to unpruned grid for atomic number  50.
 Defaulting to unpruned grid for atomic number  50.
 Defaulting to unpruned grid for atomic number  50.
 Defaulting to unpruned grid for atomic number  50.
 E= -7517.25131062644    
 DIIS: error= 2.29D-02 at cycle   1 NSaved=   1.
 NSaved= 1 IEnMin= 1 EnMin= -7517.25131062644     IErMin= 1 ErrMin= 2.29D-02
 ErrMax= 2.29D-02  0.00D+00 EMaxC= 1.00D-01 BMatC= 1.46D+00 BMatP= 1.46D+00
 IDIUse=3 WtCom= 7.71D-01 WtEn= 2.29D-01
 Coeff-Com:  0.100D+01
 Coeff-En:   0.100D+01
 Coeff:      0.100D+01
 Gap=     0.140 Goal=   None    Shift=    0.000
 GapD=    0.140 DampG=1.000 DampE=0.500 DampFc=0.5000 IDamp=-1.
 Damping current iteration by 5.00D-01
 RMSDP=5.28D-03 MaxDP=2.24D-01              OVMax= 6.88D-01

 Cycle   2  Pass 1  IDiag  1:
 RMSU=  2.64D-03    CP:  1.00D+00
 E= -7517.13170671995     Delta-E=        0.119603906482 Rises=F Damp=T
 DIIS: error= 9.95D-03 at cycle   2 NSaved=   2.
 NSaved= 2 IEnMin= 1 EnMin= -7517.25131062644     IErMin= 2 ErrMin= 9.95D-03
 ErrMax= 9.95D-03  0.00D+00 EMaxC= 1.00D-01 BMatC= 2.65D-01 BMatP= 1.46D+00
 IDIUse=3 WtCom= 9.01D-01 WtEn= 9.95D-02
 Coeff-Com:  0.139D+00 0.861D+00
 Coeff-En:   0.572D+00 0.428D+00
 Coeff:      0.182D+00 0.818D+00
 Gap=     0.110 Goal=   None    Shift=    0.000
 RMSDP=3.96D-03 MaxDP=1.74D-01 DE= 1.20D-01 OVMax= 6.61D-01

 Cycle   3  Pass 1  IDiag  1:
 RMSU=  3.22D-03    CP:  1.01D+00  1.27D-01
 E= -7515.52291271128     Delta-E=        1.608794008673 Rises=F Damp=F
 DIIS: error= 3.32D-02 at cycle   3 NSaved=   3.
 NSaved= 3 IEnMin= 1 EnMin= -7517.25131062644     IErMin= 2 ErrMin= 9.95D-03
 ErrMax= 3.32D-02  0.00D+00 EMaxC= 1.00D-01 BMatC= 1.72D+00 BMatP= 2.65D-01
 IDIUse=2 WtCom= 0.00D+00 WtEn= 1.00D+00
 EnCoef did    12 forward-backward iterations
 Coeff-En:   0.475D+00 0.466D+00 0.590D-01
 Coeff:      0.475D+00 0.466D+00 0.590D-01
 Gap=     0.145 Goal=   None    Shift=    0.000
 RMSDP=3.29D-03 MaxDP=1.15D-01 DE= 1.61D+00 OVMax= 4.05D-01

 Cycle   4  Pass 1  IDiag  1:
 RMSU=  1.37D-03    CP:  1.01D+00  8.44D-01  2.82D-01
 E= -7517.72469915704     Delta-E=       -2.201786445756 Rises=F Damp=F
 DIIS: error= 8.00D-03 at cycle   4 NSaved=   4.
 NSaved= 4 IEnMin= 4 EnMin= -7517.72469915704     IErMin= 4 ErrMin= 8.00D-03
 ErrMax= 8.00D-03  0.00D+00 EMaxC= 1.00D-01 BMatC= 2.18D-01 BMatP= 2.65D-01
 IDIUse=3 WtCom= 9.20D-01 WtEn= 8.00D-02
 Coeff-Com:  0.309D+00-0.749D-01-0.724D-01 0.838D+00
 Coeff-En:   0.660D-01 0.000D+00 0.000D+00 0.934D+00
 Coeff:      0.290D+00-0.689D-01-0.666D-01 0.846D+00
 Gap=     0.120 Goal=   None    Shift=    0.000
 RMSDP=1.17D-03 MaxDP=6.04D-02 DE=-2.20D+00 OVMax= 8.95D-02

 Cycle   5  Pass 1  IDiag  1:
 RMSU=  6.15D-04    CP:  1.00D+00  6.54D-01  5.68D-02  6.85D-01
 E= -7517.77186492873     Delta-E=       -0.047165771695 Rises=F Damp=F
 DIIS: error= 4.22D-03 at cycle   5 NSaved=   5.
 NSaved= 5 IEnMin= 5 EnMin= -7517.77186492873     IErMin= 5 ErrMin= 4.22D-03
 ErrMax= 4.22D-03  0.00D+00 EMaxC= 1.00D-01 BMatC= 4.57D-02 BMatP= 2.18D-01
 IDIUse=3 WtCom= 9.58D-01 WtEn= 4.22D-02
 Coeff-Com:  0.128D+00-0.785D-01-0.626D-02 0.449D+00 0.508D+00
 Coeff-En:   0.000D+00 0.000D+00 0.000D+00 0.312D+00 0.688D+00
 Coeff:      0.122D+00-0.752D-01-0.599D-02 0.443D+00 0.515D+00
 Gap=     0.129 Goal=   None    Shift=    0.000
 RMSDP=6.59D-04 MaxDP=3.43D-02 DE=-4.72D-02 OVMax= 6.78D-02

 Cycle   6  Pass 1  IDiag  1:
 RMSU=  3.67D-04    CP:  1.00D+00  6.10D-01  1.51D-01  7.80D-01  3.31D-01
 E= -7517.80708491407     Delta-E=       -0.035219985335 Rises=F Damp=F
 DIIS: error= 2.63D-03 at cycle   6 NSaved=   6.
 NSaved= 6 IEnMin= 6 EnMin= -7517.80708491407     IErMin= 6 ErrMin= 2.63D-03
 ErrMax= 2.63D-03  0.00D+00 EMaxC= 1.00D-01 BMatC= 9.92D-03 BMatP= 4.57D-02
 IDIUse=3 WtCom= 9.74D-01 WtEn= 2.63D-02
 Coeff-Com:  0.436D-01-0.593D-01 0.366D-02 0.199D+00 0.369D+00 0.444D+00
 Coeff-En:   0.000D+00 0.000D+00 0.000D+00 0.000D+00 0.205D+00 0.795D+00
 Coeff:      0.424D-01-0.578D-01 0.356D-02 0.194D+00 0.365D+00 0.453D+00
 Gap=     0.124 Goal=   None    Shift=    0.000
 RMSDP=3.09D-04 MaxDP=1.46D-02 DE=-3.52D-02 OVMax= 3.10D-02

 Cycle   7  Pass 1  IDiag  1:
 RMSU=  1.60D-04    CP:  1.00D+00  6.16D-01  1.35D-01  7.56D-01  5.61D-01
                    CP:  4.27D-01
 E= -7517.81371954190     Delta-E=       -0.006634627836 Rises=F Damp=F
 DIIS: error= 1.25D-03 at cycle   7 NSaved=   7.
 NSaved= 7 IEnMin= 7 EnMin= -7517.81371954190     IErMin= 7 ErrMin= 1.25D-03
 ErrMax= 1.25D-03  0.00D+00 EMaxC= 1.00D-01 BMatC= 2.12D-03 BMatP= 9.92D-03
 IDIUse=3 WtCom= 9.88D-01 WtEn= 1.25D-02
 Coeff-Com:  0.251D-01-0.455D-01 0.852D-03 0.114D+00 0.219D+00 0.346D+00
 Coeff-Com:  0.339D+00
 Coeff-En:   0.000D+00 0.000D+00 0.000D+00 0.000D+00 0.000D+00 0.268D+00
 Coeff-En:   0.732D+00
 Coeff:      0.248D-01-0.449D-01 0.841D-03 0.113D+00 0.217D+00 0.345D+00
 Coeff:      0.344D+00
 Gap=     0.124 Goal=   None    Shift=    0.000
 RMSDP=1.41D-04 MaxDP=7.20D-03 DE=-6.63D-03 OVMax= 1.60D-02

 Cycle   8  Pass 1  IDiag  1:
 RMSU=  5.10D-05    CP:  1.00D+00  6.16D-01  1.37D-01  7.62D-01  5.30D-01
                    CP:  5.55D-01  2.47D-01
 E= -7517.81607280607     Delta-E=       -0.002353264170 Rises=F Damp=F
 DIIS: error= 3.77D-04 at cycle   8 NSaved=   8.
 NSaved= 8 IEnMin= 8 EnMin= -7517.81607280607     IErMin= 8 ErrMin= 3.77D-04
 ErrMax= 3.77D-04  0.00D+00 EMaxC= 1.00D-01 BMatC= 2.94D-04 BMatP= 2.12D-03
 IDIUse=3 WtCom= 9.96D-01 WtEn= 3.77D-03
 Coeff-Com:  0.106D-01-0.206D-01 0.211D-02 0.436D-01 0.779D-01 0.166D+00
 Coeff-Com:  0.263D+00 0.458D+00
 Coeff-En:   0.000D+00 0.000D+00 0.000D+00 0.000D+00 0.000D+00 0.000D+00
 Coeff-En:   0.127D+00 0.873D+00
 Coeff:      0.106D-01-0.206D-01 0.210D-02 0.435D-01 0.776D-01 0.165D+00
 Coeff:      0.262D+00 0.460D+00
 Gap=     0.124 Goal=   None    Shift=    0.000
 RMSDP=4.35D-05 MaxDP=1.94D-03 DE=-2.35D-03 OVMax= 5.34D-03

 Cycle   9  Pass 1  IDiag  1:
 RMSU=  1.82D-05    CP:  1.00D+00  6.14D-01  1.44D-01  7.65D-01  5.24D-01
                    CP:  5.39D-01  4.17D-01  6.79D-01
 E= -7517.81643107317     Delta-E=       -0.000358267094 Rises=F Damp=F
 DIIS: error= 5.76D-05 at cycle   9 NSaved=   9.
 NSaved= 9 IEnMin= 9 EnMin= -7517.81643107317     IErMin= 9 ErrMin= 5.76D-05
 ErrMax= 5.76D-05  0.00D+00 EMaxC= 1.00D-01 BMatC= 9.57D-06 BMatP= 2.94D-04
 IDIUse=1 WtCom= 1.00D+00 WtEn= 0.00D+00
 Coeff-Com:  0.263D-02-0.541D-02 0.349D-03 0.676D-02 0.300D-02 0.280D-01
 Coeff-Com:  0.667D-01 0.193D+00 0.705D+00
 Coeff:      0.263D-02-0.541D-02 0.349D-03 0.676D-02 0.300D-02 0.280D-01
 Coeff:      0.667D-01 0.193D+00 0.705D+00
 Gap=     0.124 Goal=   None    Shift=    0.000
 RMSDP=1.45D-05 MaxDP=9.31D-04 DE=-3.58D-04 OVMax= 1.46D-03

 Cycle  10  Pass 1  IDiag  1:
 RMSU=  1.12D-05    CP:  1.00D+00  6.13D-01  1.44D-01  7.65D-01  5.17D-01
                    CP:  5.47D-01  4.25D-01  7.35D-01  6.93D-01
 E= -7517.81643481239     Delta-E=       -0.000003739222 Rises=F Damp=F
 DIIS: error= 6.68D-05 at cycle  10 NSaved=  10.
 NSaved=10 IEnMin=10 EnMin= -7517.81643481239     IErMin= 9 ErrMin= 5.76D-05
 ErrMax= 6.68D-05  0.00D+00 EMaxC= 1.00D-01 BMatC= 5.95D-06 BMatP= 9.57D-06
 IDIUse=1 WtCom= 1.00D+00 WtEn= 0.00D+00
 Coeff-Com:  0.437D-03-0.104D-02 0.183D-03-0.101D-02-0.793D-02-0.191D-02
 Coeff-Com:  0.120D-01 0.769D-01 0.530D+00 0.393D+00
 Coeff:      0.437D-03-0.104D-02 0.183D-03-0.101D-02-0.793D-02-0.191D-02
 Coeff:      0.120D-01 0.769D-01 0.530D+00 0.393D+00
 Gap=     0.124 Goal=   None    Shift=    0.000
 RMSDP=8.85D-06 MaxDP=4.55D-04 DE=-3.74D-06 OVMax= 9.92D-04

 Cycle  11  Pass 1  IDiag  1:
 RMSU=  4.59D-06    CP:  1.00D+00  6.13D-01  1.44D-01  7.65D-01  5.18D-01
                    CP:  5.48D-01  4.20D-01  7.23D-01  8.78D-01  4.08D-01
 E= -7517.81644132411     Delta-E=       -0.000006511722 Rises=F Damp=F
 DIIS: error= 3.31D-05 at cycle  11 NSaved=  11.
 NSaved=11 IEnMin=11 EnMin= -7517.81644132411     IErMin=11 ErrMin= 3.31D-05
 ErrMax= 3.31D-05  0.00D+00 EMaxC= 1.00D-01 BMatC= 1.16D-06 BMatP= 5.95D-06
 IDIUse=1 WtCom= 1.00D+00 WtEn= 0.00D+00
 Coeff-Com: -0.582D-04 0.269D-04 0.137D-03-0.168D-02-0.596D-02-0.532D-02
 Coeff-Com: -0.979D-03 0.281D-01 0.297D+00 0.311D+00 0.378D+00
 Coeff:     -0.582D-04 0.269D-04 0.137D-03-0.168D-02-0.596D-02-0.532D-02
 Coeff:     -0.979D-03 0.281D-01 0.297D+00 0.311D+00 0.378D+00
 Gap=     0.124 Goal=   None    Shift=    0.000
 RMSDP=3.45D-06 MaxDP=1.48D-04 DE=-6.51D-06 OVMax= 4.09D-04

 Cycle  12  Pass 1  IDiag  1:
 RMSU=  1.55D-06    CP:  1.00D+00  6.13D-01  1.44D-01  7.65D-01  5.19D-01
                    CP:  5.47D-01  4.20D-01  7.33D-01  8.81D-01  5.09D-01
                    CP:  4.03D-01
 E= -7517.81644289814     Delta-E=       -0.000001574030 Rises=F Damp=F
 DIIS: error= 5.71D-06 at cycle  12 NSaved=  12.
 NSaved=12 IEnMin=12 EnMin= -7517.81644289814     IErMin=12 ErrMin= 5.71D-06
 ErrMax= 5.71D-06  0.00D+00 EMaxC= 1.00D-01 BMatC= 5.87D-08 BMatP= 1.16D-06
 IDIUse=1 WtCom= 1.00D+00 WtEn= 0.00D+00
 Coeff-Com: -0.462D-04 0.690D-04 0.336D-04-0.661D-03-0.220D-02-0.277D-02
 Coeff-Com: -0.183D-02 0.652D-02 0.976D-01 0.126D+00 0.227D+00 0.551D+00
 Coeff:     -0.462D-04 0.690D-04 0.336D-04-0.661D-03-0.220D-02-0.277D-02
 Coeff:     -0.183D-02 0.652D-02 0.976D-01 0.126D+00 0.227D+00 0.551D+00
 Gap=     0.124 Goal=   None    Shift=    0.000
 RMSDP=6.69D-07 MaxDP=3.11D-05 DE=-1.57D-06 OVMax= 7.39D-05

 Cycle  13  Pass 1  IDiag  1:
 RMSU=  4.38D-07    CP:  1.00D+00  6.13D-01  1.44D-01  7.65D-01  5.18D-01
                    CP:  5.47D-01  4.20D-01  7.32D-01  8.77D-01  5.12D-01
                    CP:  4.78D-01  7.94D-01
 E= -7517.81644296190     Delta-E=       -0.000000063763 Rises=F Damp=F
 DIIS: error= 8.65D-07 at cycle  13 NSaved=  13.
 NSaved=13 IEnMin=13 EnMin= -7517.81644296190     IErMin=13 ErrMin= 8.65D-07
 ErrMax= 8.65D-07  0.00D+00 EMaxC= 1.00D-01 BMatC= 2.76D-09 BMatP= 5.87D-08
 IDIUse=1 WtCom= 1.00D+00 WtEn= 0.00D+00
 Coeff-Com: -0.113D-04 0.263D-04 0.168D-05-0.842D-04-0.269D-03-0.587D-03
 Coeff-Com: -0.753D-03-0.462D-03 0.473D-02 0.146D-01 0.524D-01 0.217D+00
 Coeff-Com:  0.713D+00
 Coeff:     -0.113D-04 0.263D-04 0.168D-05-0.842D-04-0.269D-03-0.587D-03
 Coeff:     -0.753D-03-0.462D-03 0.473D-02 0.146D-01 0.524D-01 0.217D+00
 Coeff:      0.713D+00
 Gap=     0.124 Goal=   None    Shift=    0.000
 RMSDP=1.88D-07 MaxDP=7.55D-06 DE=-6.38D-08 OVMax= 2.20D-05

 Cycle  14  Pass 1  IDiag  1:
 RMSU=  1.28D-07    CP:  1.00D+00  6.13D-01  1.44D-01  7.65D-01  5.18D-01
                    CP:  5.47D-01  4.20D-01  7.33D-01  8.79D-01  5.14D-01
                    CP:  4.98D-01  8.39D-01  9.25D-01
 E= -7517.81644296435     Delta-E=       -0.000000002450 Rises=F Damp=F
 DIIS: error= 3.48D-07 at cycle  14 NSaved=  14.
 NSaved=14 IEnMin=14 EnMin= -7517.81644296435     IErMin=14 ErrMin= 3.48D-07
 ErrMax= 3.48D-07  0.00D+00 EMaxC= 1.00D-01 BMatC= 3.03D-10 BMatP= 2.76D-09
 IDIUse=1 WtCom= 1.00D+00 WtEn= 0.00D+00
 Coeff-Com: -0.263D-05 0.869D-05-0.681D-06 0.187D-05 0.210D-04-0.825D-04
 Coeff-Com: -0.249D-03-0.733D-03-0.435D-02-0.203D-02 0.607D-02 0.700D-01
 Coeff-Com:  0.319D+00 0.613D+00
 Coeff:     -0.263D-05 0.869D-05-0.681D-06 0.187D-05 0.210D-04-0.825D-04
 Coeff:     -0.249D-03-0.733D-03-0.435D-02-0.203D-02 0.607D-02 0.700D-01
 Coeff:      0.319D+00 0.613D+00
 Gap=     0.124 Goal=   None    Shift=    0.000
 RMSDP=6.72D-08 MaxDP=4.85D-06 DE=-2.45D-09 OVMax= 7.60D-06

 Cycle  15  Pass 1  IDiag  1:
 RMSU=  4.38D-08    CP:  1.00D+00  6.13D-01  1.44D-01  7.65D-01  5.18D-01
                    CP:  5.47D-01  4.20D-01  7.33D-01  8.79D-01  5.15D-01
                    CP:  4.95D-01  8.56D-01  9.82D-01  8.44D-01
 E= -7517.81644296504     Delta-E=       -0.000000000682 Rises=F Damp=F
 DIIS: error= 2.25D-07 at cycle  15 NSaved=  15.
 NSaved=15 IEnMin=15 EnMin= -7517.81644296504     IErMin=15 ErrMin= 2.25D-07
 ErrMax= 2.25D-07  0.00D+00 EMaxC= 1.00D-01 BMatC= 5.48D-11 BMatP= 3.03D-10
 IDIUse=1 WtCom= 1.00D+00 WtEn= 0.00D+00
 Coeff-Com: -0.110D-05 0.361D-05-0.737D-06 0.846D-05 0.435D-04 0.275D-04
 Coeff-Com: -0.423D-04-0.406D-03-0.312D-02-0.326D-02-0.393D-02 0.112D-01
 Coeff-Com:  0.887D-01 0.347D+00 0.564D+00
 Coeff:     -0.110D-05 0.361D-05-0.737D-06 0.846D-05 0.435D-04 0.275D-04
 Coeff:     -0.423D-04-0.406D-03-0.312D-02-0.326D-02-0.393D-02 0.112D-01
 Coeff:      0.887D-01 0.347D+00 0.564D+00
 Gap=     0.124 Goal=   None    Shift=    0.000
 RMSDP=2.91D-08 MaxDP=1.55D-06 DE=-6.82D-10 OVMax= 3.37D-06

 Cycle  16  Pass 1  IDiag  1:
 RMSU=  1.64D-08    CP:  1.00D+00  6.13D-01  1.44D-01  7.65D-01  5.18D-01
                    CP:  5.47D-01  4.20D-01  7.33D-01  8.80D-01  5.15D-01
                    CP:  4.95D-01  8.64D-01  9.84D-01  9.34D-01  7.29D-01
 E= -7517.81644296438     Delta-E=        0.000000000657 Rises=F Damp=F
 DIIS: error= 6.23D-08 at cycle  16 NSaved=  16.
 NSaved=16 IEnMin=15 EnMin= -7517.81644296504     IErMin=16 ErrMin= 6.23D-08
 ErrMax= 6.23D-08  0.00D+00 EMaxC= 1.00D-01 BMatC= 6.18D-12 BMatP= 5.48D-11
 IDIUse=1 WtCom= 1.00D+00 WtEn= 0.00D+00
 Coeff-Com: -0.152D-06 0.517D-06-0.313D-06 0.507D-05 0.229D-04 0.327D-04
 Coeff-Com:  0.212D-04-0.848D-04-0.948D-03-0.125D-02-0.231D-02-0.426D-02
 Coeff-Com:  0.692D-03 0.784D-01 0.278D+00 0.652D+00
 Coeff:     -0.152D-06 0.517D-06-0.313D-06 0.507D-05 0.229D-04 0.327D-04
 Coeff:      0.212D-04-0.848D-04-0.948D-03-0.125D-02-0.231D-02-0.426D-02
 Coeff:      0.692D-03 0.784D-01 0.278D+00 0.652D+00
 Gap=     0.124 Goal=   None    Shift=    0.000
 RMSDP=9.67D-09 MaxDP=5.22D-07 DE= 6.57D-10 OVMax= 1.40D-06

 SCF Done:  E(RPBE1PBE) =  -7517.81644296     A.U. after   16 cycles
            NFock= 16  Conv=0.97D-08     -V/T= 2.1285
 KE= 6.661959261566D+03 PE=-2.464831455968D+04 EE= 6.940047251140D+03
 Leave Link  502 at Tue Mar  6 12:10:06 2018, MaxMem=   536870912 cpu:      2879.8
 (Enter /share/apps//mg09/l601.exe)
 Copying SCF densities to generalized density rwf, IOpCl= 0 IROHF=0.

 **********************************************************************

            Population analysis using the SCF density.

 **********************************************************************

 Orbital symmetries:
       Occupied  (A) (A) (A) (A) (A) (A) (A) (A) (A) (A) (A) (A)
                 (A) (A) (A) (A) (A) (A) (A) (A) (A) (A) (A) (A)
                 (A) (A) (A) (A) (A) (A) (A) (A) (A) (A) (A) (A)
                 (A) (A) (A) (A) (A) (A) (A) (A) (A) (A) (A) (A)
                 (A) (A) (A) (A) (A) (A) (A) (A) (A) (A) (A) (A)
                 (A) (A) (A) (A) (A) (A) (A) (A) (A) (A) (A) (A)
                 (A) (A) (A) (A) (A) (A) (A) (A) (A) (A) (A) (A)
                 (A) (A) (A) (A) (A) (A) (A) (A) (A) (A) (A) (A)
                 (A) (A) (A) (A) (A) (A) (A) (A) (A) (A) (A) (A)
                 (A) (A) (A) (A) (A) (A) (A) (A)
       Virtual   (A) (A) (A) (A) (A) (A) (A) (A) (A) (A) (A) (A)
                 (A) (A) (A) (A) (A) (A) (A) (A) (A) (A) (A) (A)
                 (A) (A) (A) (A) (A) (A) (A) (A) (A) (A) (A) (A)
                 (A) (A) (A) (A) (A) (A) (A) (A) (A) (A) (A) (A)
                 (A) (A) (A) (A) (A) (A) (A) (A) (A) (A) (A) (A)
                 (A) (A) (A) (A) (A) (A) (A) (A) (A) (A) (A) (A)
                 (A) (A) (A) (A) (A) (A) (A) (A) (A) (A) (A) (A)
                 (A) (A) (A) (A) (A) (A) (A) (A) (A) (A) (A) (A)
                 (A) (A) (A) (A) (A) (A) (A) (A) (A) (A) (A) (A)
                 (A) (A) (A) (A) (A) (A) (A) (A) (A) (A) (A) (A)
                 (A) (A) (A) (A) (A) (A) (A) (A) (A) (A) (A) (A)
                 (A) (A) (A) (A) (A) (A) (A) (A) (A) (A) (A) (A)
                 (A) (A) (A) (A) (A) (A) (A) (A) (A) (A) (A) (A)
                 (A) (A) (A) (A) (A) (A) (A) (A) (A) (A) (A) (A)
                 (A) (A) (A) (A) (A) (A) (A) (A) (A) (A) (A) (A)
                 (A) (A) (A) (A) (A) (A) (A) (A) (A) (A) (A) (A)
                 (A) (A) (A) (A) (A) (A) (A) (A) (A) (A) (A) (A)
                 (A) (A) (A) (A) (A) (A) (A) (A) (A) (A) (A) (A)
                 (A) (A) (A) (A) (A) (A) (A) (A) (A) (A) (A) (A)
                 (A) (A) (A) (A) (A) (A) (A) (A) (A) (A) (A) (A)
                 (A) (A) (A) (A) (A) (A) (A) (A) (A) (A) (A) (A)
                 (A) (A) (A) (A) (A) (A) (A) (A) (A) (A) (A) (A)
                 (A) (A) (A) (A) (A) (A) (A) (A) (A) (A) (A) (A)
                 (A) (A) (A) (A) (A) (A) (A) (A) (A) (A) (A) (A)
                 (A) (A) (A) (A) (A) (A) (A) (A) (A) (A) (A) (A)
                 (A) (A) (A) (A) (A) (A) (A) (A) (A) (A) (A) (A)
                 (A) (A) (A) (A) (A) (A) (A) (A) (A) (A) (A) (A)
                 (A) (A) (A) (A)
 The electronic state is 1-A.
 Alpha  occ. eigenvalues -- -399.10407-399.09375-399.08902 -49.91945 -49.90953
 Alpha  occ. eigenvalues --  -49.90517 -44.40045 -44.40011 -44.39952 -44.39030
 Alpha  occ. eigenvalues --  -44.39012 -44.38980 -44.38597 -44.38577 -44.38530
 Alpha  occ. eigenvalues --   -6.28436  -6.27451  -6.27028  -6.02286  -6.01935
 Alpha  occ. eigenvalues --   -6.01848  -6.01018  -5.13589  -5.13529  -4.43923
 Alpha  occ. eigenvalues --   -4.43815  -4.43617  -4.42881  -4.42820  -4.42706
 Alpha  occ. eigenvalues --   -4.42492  -4.42410  -4.42255  -3.74589  -3.74411
 Alpha  occ. eigenvalues --   -3.74284  -3.74210  -3.74136  -3.74062  -3.74039
 Alpha  occ. eigenvalues --   -3.73963  -3.73758  -3.73338  -3.73114  -3.73003
 Alpha  occ. eigenvalues --   -3.46826  -3.46761  -3.46760  -3.46651  -3.46528
 Alpha  occ. eigenvalues --   -3.46522  -1.23382  -1.23360  -1.23192  -1.23119
 Alpha  occ. eigenvalues --   -1.23094  -1.22343  -1.22328  -1.22240  -1.22175
 Alpha  occ. eigenvalues --   -1.22150  -1.21965  -1.21931  -1.21824  -1.21737
 Alpha  occ. eigenvalues --   -1.21708  -1.08688  -1.08344  -1.08262  -1.08133
 Alpha  occ. eigenvalues --   -1.07952  -1.07935  -1.07900  -1.07860  -1.07807
 Alpha  occ. eigenvalues --   -1.07674  -1.07538  -1.07424  -1.07368  -1.07263
 Alpha  occ. eigenvalues --   -1.07178  -1.06938  -1.06839  -1.06697  -1.06625
 Alpha  occ. eigenvalues --   -1.06551  -1.03057  -1.03049  -1.02936  -1.02929
 Alpha  occ. eigenvalues --   -1.02923  -1.02830  -1.02777  -1.02727  -1.02689
 Alpha  occ. eigenvalues --   -1.02597  -0.66868  -0.62093  -0.59495  -0.56412
 Alpha  occ. eigenvalues --   -0.51295  -0.46670  -0.44526  -0.41773  -0.40760
 Alpha  occ. eigenvalues --   -0.28999  -0.27896  -0.26436  -0.25872  -0.24506
 Alpha  occ. eigenvalues --   -0.24347  -0.23049  -0.22873  -0.22321  -0.20831
 Alpha  occ. eigenvalues --   -0.20295
 Alpha virt. eigenvalues --   -0.07907  -0.07308  -0.06877  -0.06471  -0.05894
 Alpha virt. eigenvalues --   -0.05481  -0.05226  -0.04624  -0.04430  -0.03675
 Alpha virt. eigenvalues --   -0.03282  -0.02121  -0.01946   0.03585   0.05153
 Alpha virt. eigenvalues --    0.05348   0.06422   0.08267   0.08442   0.08906
 Alpha virt. eigenvalues --    0.09018   0.09532   0.09909   0.10181   0.10616
 Alpha virt. eigenvalues --    0.10881   0.11544   0.12060   0.12241   0.12635
 Alpha virt. eigenvalues --    0.13738   0.15347   0.16287   0.16560   0.17140
 Alpha virt. eigenvalues --    0.18044   0.19195   0.19851   0.20104   0.20572
 Alpha virt. eigenvalues --    0.20925   0.21556   0.21967   0.23044   0.23885
 Alpha virt. eigenvalues --    0.24432   0.25875   0.26683   0.28295   0.29462
 Alpha virt. eigenvalues --    0.29838   0.30245   0.30403   0.30594   0.31307
 Alpha virt. eigenvalues --    0.31638   0.32127   0.32450   0.33089   0.33607
 Alpha virt. eigenvalues --    0.34435   0.35038   0.35611   0.36338   0.36495
 Alpha virt. eigenvalues --    0.39098   0.39965   0.40526   0.41648   0.41838
 Alpha virt. eigenvalues --    0.42402   0.42949   0.43662   0.44107   0.45072
 Alpha virt. eigenvalues --    0.45362   0.46590   0.46928   0.47083   0.48062
 Alpha virt. eigenvalues --    0.48342   0.48919   0.50189   0.50498   0.51483
 Alpha virt. eigenvalues --    0.52308   0.53733   0.54305   0.54899   0.55332
 Alpha virt. eigenvalues --    0.56394   0.56801   0.57913   0.58877   0.58981
 Alpha virt. eigenvalues --    0.60147   0.60261   0.61288   0.62257   0.62530
 Alpha virt. eigenvalues --    0.63649   0.63772   0.64799   0.65165   0.65590
 Alpha virt. eigenvalues --    0.66507   0.67300   0.68339   0.68696   0.68983
 Alpha virt. eigenvalues --    0.69939   0.71508   0.72384   0.73333   0.74544
 Alpha virt. eigenvalues --    0.74779   0.76662   0.77060   0.77938   0.78768
 Alpha virt. eigenvalues --    0.79795   0.80035   0.80696   0.81348   0.82625
 Alpha virt. eigenvalues --    0.83033   0.83469   0.84370   0.86092   0.86613
 Alpha virt. eigenvalues --    0.86730   0.87811   0.88358   0.89343   0.89776
 Alpha virt. eigenvalues --    0.90717   0.91140   0.91875   0.92680   0.92876
 Alpha virt. eigenvalues --    0.94154   0.94838   0.96255   0.97284   0.97568
 Alpha virt. eigenvalues --    0.97826   0.98871   0.99025   0.99493   1.01947
 Alpha virt. eigenvalues --    1.02593   1.03185   1.04440   1.04927   1.07320
 Alpha virt. eigenvalues --    1.07775   1.09504   1.10208   1.11618   1.12806
 Alpha virt. eigenvalues --    1.13704   1.14659   1.15463   1.15958   1.16406
 Alpha virt. eigenvalues --    1.17863   1.18152   1.18857   1.19520   1.20177
 Alpha virt. eigenvalues --    1.20580   1.21464   1.21623   1.21663   1.22092
 Alpha virt. eigenvalues --    1.22635   1.23002   1.23272   1.23368   1.24228
 Alpha virt. eigenvalues --    1.24811   1.25164   1.26040   1.26562   1.27428
 Alpha virt. eigenvalues --    1.28065   1.28406   1.29180   1.29652   1.29830
 Alpha virt. eigenvalues --    1.31189   1.31901   1.32603   1.32823   1.33889
 Alpha virt. eigenvalues --    1.34703   1.36681   1.37437   1.38455   1.39414
 Alpha virt. eigenvalues --    1.40178   1.40921   1.41375   1.42473   1.43738
 Alpha virt. eigenvalues --    1.44660   1.45729   1.46957   1.47658   1.48718
 Alpha virt. eigenvalues --    1.49889   1.49971   1.50437   1.51722   1.52315
 Alpha virt. eigenvalues --    1.53394   1.54382   1.55445   1.58234   1.59501
 Alpha virt. eigenvalues --    1.64470   1.68327   1.70388   2.04561   2.08211
 Alpha virt. eigenvalues --    2.10006   2.10608   2.11494   2.13945   2.15446
 Alpha virt. eigenvalues --    2.17117   2.17979   2.18959   2.19960   2.21990
 Alpha virt. eigenvalues --    2.22546   2.22962   2.23886   2.24474   2.25389
 Alpha virt. eigenvalues --    2.26830   2.28371   2.28969   2.30114   2.31611
 Alpha virt. eigenvalues --    2.34352   2.36233   2.37742   2.38433   2.39160
 Alpha virt. eigenvalues --    2.40317   2.41390   2.43021   2.44675   2.47333
 Alpha virt. eigenvalues --    2.47591   2.49061   2.53700   2.54657   2.55878
 Alpha virt. eigenvalues --    2.57492   2.59712   2.62274   2.63246   2.66803
 Alpha virt. eigenvalues --    2.69437   2.70507   2.72009   2.73115   2.74752
 Alpha virt. eigenvalues --    2.77399   2.77977   2.78948   2.79691   2.81251
 Alpha virt. eigenvalues --    2.82684   2.84833   2.85910   2.87789   2.93688
 Alpha virt. eigenvalues --    3.20753   3.27062   3.28765   3.35712   3.38917
 Alpha virt. eigenvalues --    3.42208   3.93261   3.96486   3.97725   3.98590
 Alpha virt. eigenvalues --    4.00069   4.02851   4.04089   4.07276   4.16767
 Alpha virt. eigenvalues --    5.30224   5.32231   5.36125  35.36479  35.40116
 Alpha virt. eigenvalues --   35.41484  35.43772  35.45914  35.46807  35.50327
 Alpha virt. eigenvalues --   35.51154  35.53800  35.54515  35.59977  35.62884
 Alpha virt. eigenvalues --   35.86593  35.94049  36.02458  36.05631  36.19875
 Alpha virt. eigenvalues --   36.22878  36.94350  36.99331  37.02484  37.03294
 Alpha virt. eigenvalues --   37.09061  37.21147 113.57251 113.59759 120.21496
 Alpha virt. eigenvalues --  120.23546 120.25172 120.25408
          Condensed to atoms (all electrons):
               1          2          3          4          5          6
     1  Sn  21.345284   0.183558   0.064121   0.087148  -0.021463  -0.013020
     2  Ge   0.183558  31.599982   0.178043   0.135676   0.167668  -0.010828
     3  Ge   0.064121   0.178043  31.537856  -0.020497   0.084571  -0.016416
     4  Sn   0.087148   0.135676  -0.020497  21.366710   0.117304   0.108606
     5  Bi  -0.021463   0.167668   0.084571   0.117304  22.241949   0.137399
     6  Ge  -0.013020  -0.010828  -0.016416   0.108606   0.137399  31.608302
     7  Bi   0.134679  -0.013406  -0.019123   0.152965  -0.024350   0.200066
     8  Bi  -0.017261  -0.017904   0.108177  -0.019499   0.164734   0.179819
     9  Bi   0.135917  -0.017442   0.155181  -0.017112  -0.022931  -0.017956
               7          8          9
     1  Sn   0.134679  -0.017261   0.135917
     2  Ge  -0.013406  -0.017904  -0.017442
     3  Ge  -0.019123   0.108177   0.155181
     4  Sn   0.152965  -0.019499  -0.017112
     5  Bi  -0.024350   0.164734  -0.022931
     6  Ge   0.200066   0.179819  -0.017956
     7  Bi  22.393040  -0.027546   0.179304
     8  Bi  -0.027546  22.375058   0.197677
     9  Bi   0.179304   0.197677  22.380105
 Mulliken charges:
               1
     1  Sn   0.101038
     2  Ge  -0.205346
     3  Ge  -0.071912
     4  Sn   0.088700
     5  Bi   0.155119
     6  Ge  -0.175972
     7  Bi   0.024371
     8  Bi   0.056746
     9  Bi   0.027257
 Sum of Mulliken charges =   0.00000
 Mulliken charges with hydrogens summed into heavy atoms:
               1
     1  Sn   0.101038
     2  Ge  -0.205346
     3  Ge  -0.071912
     4  Sn   0.088700
     5  Bi   0.155119
     6  Ge  -0.175972
     7  Bi   0.024371
     8  Bi   0.056746
     9  Bi   0.027257
 Electronic spatial extent (au):  <R**2>=           6043.8130
 Charge=              0.0000 electrons
 Dipole moment (field-independent basis, Debye):
    X=             -0.4342    Y=              0.8711    Z=             -0.4143  Tot=              1.0579
 Quadrupole moment (field-independent basis, Debye-Ang):
   XX=           -214.5325   YY=           -215.9647   ZZ=           -223.9685
   XY=             -0.3094   XZ=             -1.1631   YZ=             -0.4320
 Traceless Quadrupole moment (field-independent basis, Debye-Ang):
   XX=              3.6227   YY=              2.1905   ZZ=             -5.8132
   XY=             -0.3094   XZ=             -1.1631   YZ=             -0.4320
 Octapole moment (field-independent basis, Debye-Ang**2):
  XXX=            -14.3272  YYY=            107.7225  ZZZ=            -54.6008  XYY=            -12.3857
  XXY=             36.3944  XXZ=            -22.1101  XZZ=            -19.0256  YZZ=             36.0421
  YYZ=            -24.7940  XYZ=             -0.9675
 Hexadecapole moment (field-independent basis, Debye-Ang**3):
 XXXX=          -3371.2256 YYYY=          -3365.0097 ZZZZ=          -2893.6136 XXXY=            -18.6622
 XXXZ=             19.2640 YYYX=              8.5131 YYYZ=             19.6025 ZZZX=             30.0589
 ZZZY=             35.9820 XXYY=          -1136.5645 XXZZ=          -1061.7126 YYZZ=          -1053.6722
 XXYZ=             19.0800 YYXZ=            -11.4090 ZZXY=             16.4897
 N-N= 3.528491604010D+03 E-N=-2.464831452658D+04  KE= 6.661959261566D+03
 No NMR shielding tensors so no spin-rotation constants.
 Leave Link  601 at Tue Mar  6 12:10:07 2018, MaxMem=   536870912 cpu:         1.1
 (Enter /share/apps//mg09/l701.exe)
 Compute integral first derivatives.
 ... and contract with generalized density number  0.
   1 Symmetry operations used in ECPInt.
 ECPInt:  NShTT=   10440 NPrTT=   41973 LenC2=    9666 LenP2D=   27473.
 LDataN:  DoStor=T MaxTD1= 9 Len=  602
 Leave Link  701 at Tue Mar  6 12:10:24 2018, MaxMem=   536870912 cpu:        66.1
 (Enter /share/apps//mg09/l702.exe)
 L702 exits ... SP integral derivatives will be done elsewhere.
 Leave Link  702 at Tue Mar  6 12:10:24 2018, MaxMem=   536870912 cpu:         0.1
 (Enter /share/apps//mg09/l703.exe)
 Compute integral first derivatives, UseDBF=F ICtDFT=           0.
 Integral derivatives from FoFJK, PRISM(SPDF).
 Calling FoFJK, ICntrl=      2127 FMM=F ISym2X=0 I1Cent= 0 IOpClX= 0 NMat=1 NMatS=1 NMatT=0.
 FoFJK:  IHMeth= 1 ICntrl=    2127 DoSepK=F KAlg= 0 I1Cent=   0 FoldK=F
 IRaf=         0 NMat=   1 IRICut=       1 DoRegI=T DoRafI=F ISym2E= 0.
 FoFCou: FMM=F IPFlag=           0 FMFlag=      100000 FMFlg1=         800
         NFxFlg=           0 DoJE=F BraDBF=F KetDBF=F FulRan=T
         wScrn=  0.000000 ICntrl=    2127 IOpCl=  0 I1Cent=           0 NGrid=           0
         NMat0=    1 NMatS0=      1 NMatT0=    0 NMatD0=    1 NMtDS0=    0 NMtDT0=    0
 Symmetry not used in FoFCou.
 Defaulting to unpruned grid for atomic number  50.
 Defaulting to unpruned grid for atomic number  50.
 Defaulting to unpruned grid for atomic number  50.
 Defaulting to unpruned grid for atomic number  50.
 Leave Link  703 at Tue Mar  6 12:13:39 2018, MaxMem=   536870912 cpu:       779.1
 (Enter /share/apps//mg09/l716.exe)
 Dipole        =-1.70846305D-01 3.42721739D-01-1.63014837D-01
 ***** Axes restored to original set *****
 -------------------------------------------------------------------
 Center     Atomic                   Forces (Hartrees/Bohr)
 Number     Number              X              Y              Z
 -------------------------------------------------------------------
      1       50          -0.012550424   -0.004715921   -0.005829333
      2       32           0.007470140   -0.010103399   -0.010181317
      3       32           0.002721394    0.010326226   -0.008898393
      4       50           0.001358606   -0.012443886    0.005881083
      5       83           0.010533798    0.001895580    0.001439102
      6       32           0.002329702    0.002235401    0.011731587
      7       83          -0.007729339   -0.000986381    0.004000807
      8       83           0.002110012    0.008144091    0.001481231
      9       83          -0.006243889    0.005648290    0.000375232
 -------------------------------------------------------------------
 Cartesian Forces:  Max     0.012550424 RMS     0.007058436
 Force constants in Cartesian coordinates: 
                1             2             3             4             5 
      1  0.172171D+00
      2  0.190778D-01  0.142742D+00
      3  0.264623D-01  0.326814D-01  0.155354D+00
      4 -0.642105D-01  0.174870D-01  0.209539D-01  0.143985D+00
      5 -0.111175D-01 -0.252865D-01 -0.741942D-02 -0.111958D-01  0.154200D+00
      6 -0.134768D-01 -0.781057D-02 -0.306880D-01 -0.114759D-01  0.362770D-01
      7 -0.255505D-01 -0.193136D-01  0.115062D-01 -0.279878D-01  0.168835D-01
      8 -0.796721D-02 -0.258752D-01  0.154509D-01  0.568647D-03 -0.666271D-01
      9 -0.129970D-01 -0.736529D-02 -0.283461D-01  0.933336D-02 -0.172403D-01
     10 -0.249616D-01  0.154732D-01 -0.176515D-01 -0.202358D-01 -0.527270D-02
     11 -0.113062D-01 -0.288870D-01 -0.825589D-02  0.846469D-02 -0.336553D-01
     12 -0.953447D-02  0.170546D-01 -0.253435D-01  0.462307D-02  0.279586D-01
     13 -0.723309D-02 -0.581885D-02 -0.887834D-02 -0.471190D-01  0.139452D-02
     14 -0.109051D-02  0.572363D-02 -0.229451D-02 -0.249762D-01 -0.373115D-01
     15 -0.201051D-02 -0.233052D-02  0.497046D-02 -0.345791D-01 -0.233806D-01
     16  0.315119D-02 -0.332113D-02 -0.203938D-02  0.634128D-02  0.196683D-02
     17 -0.956074D-03  0.344983D-02  0.134870D-02  0.362621D-02  0.490000D-02
     18 -0.736957D-02 -0.573172D-02 -0.234155D-02  0.296482D-02 -0.620498D-02
     19 -0.284657D-01 -0.688526D-02 -0.160571D-01  0.130571D-02  0.269372D-02
     20  0.161392D-02 -0.169707D-01 -0.182079D-01 -0.234526D-02  0.370918D-02
     21  0.183315D-01 -0.348745D-02 -0.540417D-01  0.540048D-02 -0.490101D-02
     22  0.295251D-02 -0.170841D-02 -0.404207D-02  0.577878D-02 -0.325480D-02
     23 -0.670145D-02 -0.903607D-03 -0.707734D-02  0.130855D-02 -0.198751D-02
     24 -0.175279D-02  0.590445D-03  0.249290D-02  0.415094D-02 -0.415509D-02
     25 -0.278531D-01 -0.149907D-01 -0.102541D-01  0.214246D-02  0.790230D-02
     26  0.184472D-01 -0.539920D-01 -0.622601D-02  0.706218D-02  0.205820D-02
     27  0.234726D-02 -0.236009D-01 -0.220569D-01 -0.137162D-02 -0.934215D-03
                6             7             8             9            10 
      6  0.169330D+00
      7 -0.680615D-03  0.150056D+00
      8  0.247225D-01 -0.550429D-02  0.174217D+00
      9 -0.381358D-01 -0.227129D-01 -0.248233D-01  0.213231D+00
     10  0.148015D-01  0.720727D-02  0.159002D-02 -0.135843D-03  0.126229D+00
     11 -0.113719D-01 -0.147448D-02 -0.388878D-02  0.119858D-01 -0.137508D-01
     12 -0.488064D-01  0.203655D-02  0.448732D-02  0.101325D-03 -0.612687D-02
     13  0.637219D-03 -0.391738D-01 -0.362003D-02  0.606178D-02 -0.406187D-01
     14 -0.266183D-01  0.161609D-01 -0.221894D-01  0.147477D-01 -0.297983D-01
     15 -0.552948D-01 -0.248941D-01  0.114950D-01 -0.385341D-01  0.982981D-02
     16 -0.270668D-02  0.467079D-02  0.806298D-04 -0.425371D-02 -0.132768D-01
     17 -0.131425D-02 -0.176665D-02  0.540261D-02  0.541240D-04 -0.599988D-02
     18 -0.446322D-02  0.367420D-02  0.507803D-02 -0.589497D-02 -0.229724D-02
     19  0.820997D-02  0.127877D-02 -0.417765D-02  0.878474D-02 -0.412033D-01
     20 -0.147086D-03 -0.700238D-03  0.411328D-02  0.357394D-02  0.353593D-01
     21  0.702538D-03 -0.211058D-03  0.244855D-02 -0.219840D-02  0.346709D-02
     22  0.150140D-02 -0.151447D-01 -0.842860D-03  0.431329D-02  0.479780D-02
     23 -0.827812D-02 -0.283173D-02 -0.347506D-01  0.794145D-02  0.292561D-02
     24  0.412133D-02 -0.743521D-02 -0.295911D-01 -0.594928D-01 -0.127475D-02
     25  0.318981D-02 -0.553556D-01  0.198727D-01  0.116062D-01  0.206234D-02
     26 -0.545940D-02 -0.145334D-02 -0.304014D-01  0.111260D-01 -0.526492D-03
     27  0.323482D-02  0.387169D-01 -0.926793D-02 -0.407297D-01 -0.612228D-03
               11            12            13            14            15 
     11  0.201376D+00
     12 -0.239145D-01  0.139279D+00
     13  0.651707D-02 -0.373275D-02  0.234356D+00
     14 -0.414485D-01  0.577934D-02  0.545977D-03  0.153112D+00
     15  0.926346D-02 -0.177567D-01  0.674099D-02  0.196394D-01  0.169841D+00
     16  0.288056D-02 -0.752657D-03 -0.486414D-01  0.156600D-02  0.396553D-01
     17 -0.446613D-01 -0.269653D-01 -0.196627D-02 -0.180006D-01 -0.672001D-02
     18  0.112131D-01 -0.331861D-01  0.192148D-03 -0.596217D-02 -0.537893D-01
     19  0.516578D-02  0.168047D-01 -0.559642D-02  0.199212D-02 -0.683045D-03
     20 -0.397144D-01 -0.947179D-02 -0.347153D-02  0.502147D-02  0.181135D-02
     21  0.102053D-01 -0.253643D-01  0.722501D-02  0.968166D-03  0.429810D-02
     22 -0.463725D-02 -0.565719D-03 -0.412268D-01  0.361119D-01  0.486272D-02
     23 -0.588743D-02  0.323545D-02 -0.154885D-02 -0.480181D-01 -0.108516D-01
     24 -0.215119D-02  0.596520D-02 -0.503504D-02 -0.781840D-02 -0.194551D-01
     25  0.814059D-02 -0.275184D-02 -0.474703D-02 -0.511905D-03  0.107786D-02
     26 -0.323379D-02  0.183631D-02  0.796795D-02  0.311080D-02  0.107338D-02
     27  0.302585D-02  0.511163D-02 -0.321100D-02  0.155873D-02  0.572021D-02
               16            17            18            19            20 
     16  0.128792D+00
     17  0.144825D-01  0.119667D+00
     18  0.672894D-02 -0.875045D-03  0.184577D+00
     19 -0.634621D-01 -0.818804D-02  0.485558D-02  0.162548D+00
     20 -0.174780D-01 -0.207971D-01  0.367943D-03  0.220992D-02  0.104537D+00
     21 -0.308269D-01 -0.602616D-02 -0.356451D-01 -0.199605D-01 -0.686622D-02
     22 -0.184166D-01 -0.468872D-02 -0.417219D-02 -0.760994D-03 -0.623039D-02
     23 -0.571742D-02 -0.532389D-01  0.108822D-02 -0.522866D-02 -0.307244D-02
     24 -0.118710D-02  0.395530D-01 -0.457880D-01  0.427432D-02 -0.581406D-03
     25  0.841808D-03  0.545695D-02 -0.457669D-02 -0.256441D-01 -0.895772D-02
     26  0.554010D-02  0.327864D-02  0.102665D-02  0.124181D-01 -0.368259D-01
     27 -0.461782D-02  0.944984D-03 -0.346883D-02 -0.622866D-02  0.295211D-01
               21            22            23            24            25 
     21  0.141150D+00
     22  0.442843D-02  0.112767D+00
     23 -0.725917D-03  0.776583D-02  0.178081D+00
     24  0.372539D-02  0.166964D-01  0.129288D-01  0.129535D+00
     25  0.121460D-01 -0.507469D-01  0.100281D-01 -0.843672D-02  0.159300D+00
     26  0.838474D-02 -0.225153D-01 -0.302228D-01 -0.877503D-02 -0.269403D-01
     27 -0.326261D-01 -0.230222D-01  0.173899D-02 -0.211039D-01 -0.200056D-02
               26            27 
     26  0.146228D+00
     27 -0.298662D-02  0.105919D+00
 Leave Link  716 at Tue Mar  6 12:13:39 2018, MaxMem=   536870912 cpu:         0.1
 (Enter /share/apps//mg09/l103.exe)

 GradGradGradGradGradGradGradGradGradGradGradGradGradGradGradGradGradGrad
 Berny optimization.
 Search for a local minimum.
 Step number   1 out of a maximum of  100
 All quantities printed in internal units (Hartrees-Bohrs-Radians)
 Second derivative matrix not updated -- first step.
 ITU=  0
     Eigenvalues ---    0.08174   0.11830   0.12269   0.12662   0.13896
     Eigenvalues ---    0.14281   0.14540   0.15228   0.15870   0.16241
     Eigenvalues ---    0.17245   0.22289   0.23029   0.23471   0.24362
     Eigenvalues ---    0.24719   0.26231   0.28320   0.28979   0.30640
     Eigenvalues ---    0.31505
 RFO step:  Lambda=-8.08644567D-03 EMin= 8.17352998D-02
 Linear search not attempted -- first point.
 TrRot=  0.001496  0.000534 -0.000798 -0.000032  0.000078 -0.000032
 MatCor failed.
 Variable       Old X    -DE/DX   Delta X   Delta X   Delta X     New X
                                 (Linear)    (Quad)   (Total)
    X1        3.02415  -0.01255   0.00000  -0.07045  -0.06855   2.95560
    Y1        2.61899  -0.00472   0.00000  -0.02992  -0.02957   2.58942
    Z1        3.07730  -0.00583   0.00000  -0.03980  -0.04083   3.03647
    X2       -2.27488   0.00747   0.00000   0.04246   0.04446  -2.23042
    Y2        3.25600  -0.01010   0.00000  -0.05502  -0.05434   3.20166
    Z2        3.94237  -0.01018   0.00000  -0.05980  -0.06042   3.88195
    X3       -1.15919   0.00272   0.00000   0.01364   0.01535  -1.14384
    Y3       -1.77039   0.01033   0.00000   0.05378   0.05439  -1.71600
    Z3        4.16209  -0.00890   0.00000  -0.05104  -0.05175   4.11034
    X4       -0.86043   0.00136   0.00000   0.00657   0.00828  -0.85215
    Y4        4.87002  -0.01244   0.00000  -0.07533  -0.07474   4.79528
    Z4       -1.28383   0.00588   0.00000   0.03665   0.03592  -1.24791
    X5       -4.73085   0.01053   0.00000   0.05754   0.05906  -4.67179
    Y5        0.52821   0.00190   0.00000   0.00402   0.00485   0.53306
    Z5       -0.02905   0.00144   0.00000   0.00516   0.00472  -0.02432
    X6       -1.42089   0.00233   0.00000   0.01374   0.01489  -1.40599
    Y6        0.05923   0.00224   0.00000   0.01591   0.01654   0.07577
    Z6       -4.51412   0.01173   0.00000   0.07136   0.07067  -4.44345
    X7        3.55898  -0.00773   0.00000  -0.05268  -0.05130   3.50768
    Y7        1.44196  -0.00099   0.00000  -0.01849  -0.01818   1.42378
    Z7       -2.64926   0.00400   0.00000   0.03633   0.03526  -2.61400
    X8       -1.65917   0.00211   0.00000   0.01940   0.02055  -1.63862
    Y8       -4.20579   0.00814   0.00000   0.05769   0.05833  -4.14746
    Z8       -1.01574   0.00148   0.00000   0.01184   0.01117  -1.00457
    X9        3.39938  -0.00624   0.00000  -0.04415  -0.04274   3.35664
    Y9       -2.87144   0.00565   0.00000   0.04241   0.04273  -2.82871
    Z9        1.22941   0.00038   0.00000  -0.00368  -0.00474   1.22467
         Item               Value     Threshold  Converged?
 Maximum Force            0.012550     0.000450     NO 
 RMS     Force            0.007058     0.000300     NO 
 Maximum Displacement     0.074739     0.001800     NO 
 RMS     Displacement     0.042814     0.001200     NO 
 Predicted change in Energy=-4.243375D-03
 Lowest energy point so far.  Saving SCF results.
 GradGradGradGradGradGradGradGradGradGradGradGradGradGradGradGradGradGrad

 Leave Link  103 at Tue Mar  6 12:13:39 2018, MaxMem=   536870912 cpu:         0.1
 (Enter /share/apps//mg09/l202.exe)
                          Input orientation:                          
 ---------------------------------------------------------------------
 Center     Atomic      Atomic             Coordinates (Angstroms)
 Number     Number       Type             X           Y           Z
 ---------------------------------------------------------------------
      1         50           0        1.564037    1.370263    1.606832
      2         32           0       -1.180287    1.694246    2.054237
      3         32           0       -0.605296   -0.908070    2.175101
      4         50           0       -0.450937    2.537553   -0.660365
      5         83           0       -2.472203    0.282085   -0.012872
      6         32           0       -0.744020    0.040095   -2.351372
      7         83           0        1.856183    0.753431   -1.383267
      8         83           0       -0.867120   -2.194743   -0.531598
      9         83           0        1.776259   -1.496887    0.648067
 ---------------------------------------------------------------------
                    Distance matrix (angstroms):
                    1          2          3          4          5
     1  Sn   0.000000
     2  Ge   2.799366   0.000000
     3  Ge   3.196832   2.667821   0.000000
     4  Sn   3.250057   2.934652   4.464976   0.000000
     5  Bi   4.483170   2.817124   3.112722   3.097079   0.000000
     6  Ge   4.771148   4.726091   4.626793   3.030296   2.917834
     7  Bi   3.067005   4.682063   4.634807   3.004743   4.564546
     8  Bi   4.815877   4.680689   3.008371   4.752306   2.996672
     9  Bi   3.030646   4.571850   2.889695   4.790523   4.653065
                    6          7          8          9
     6  Ge   0.000000
     7  Bi   2.864809   0.000000
     8  Bi   2.884654   4.102858   0.000000
     9  Bi   4.208415   3.032596   2.977594   0.000000
 Stoichiometry    Bi4Ge3Sn2
 Framework group  C1[X(Bi4Ge3Sn2)]
 Deg. of freedom    21
 Full point group                 C1      NOp   1
 RotChk:  IX=0 Diff= 1.87D-02
 Largest Abelian subgroup         C1      NOp   1
 Largest concise Abelian subgroup C1      NOp   1
                         Standard orientation:                         
 ---------------------------------------------------------------------
 Center     Atomic      Atomic             Coordinates (Angstroms)
 Number     Number       Type             X           Y           Z
 ---------------------------------------------------------------------
      1         50           0       -1.548506   -1.392318    1.600179
      2         32           0        1.199650   -1.682089    2.047525
      3         32           0        0.591054    0.912228    2.175576
      4         50           0        0.482008   -2.527048   -0.669682
      5         83           0        2.473787   -0.247501   -0.015173
      6         32           0        0.743269   -0.021229   -2.353519
      7         83           0       -1.847769   -0.770838   -1.388253
      8         83           0        0.836983    2.209845   -0.527387
      9         83           0       -1.797486    1.474557    0.649469
 ---------------------------------------------------------------------
 Rotational constants (GHZ):      0.1045089      0.0959033      0.0820363
 Leave Link  202 at Tue Mar  6 12:13:40 2018, MaxMem=   536870912 cpu:         0.0
 (Enter /share/apps//mg09/l301.exe)
 Standard basis: def2TZVP (5D, 7F)
 Ernie: Thresh=  0.10000D-02 Tol=  0.10000D-05 Strict=F.
 There are   519 symmetry adapted cartesian basis functions of A   symmetry.
 There are   444 symmetry adapted basis functions of A   symmetry.
   444 basis functions,   963 primitive gaussians,   519 cartesian basis functions
   116 alpha electrons      116 beta electrons
       nuclear repulsion energy      3583.1905660229 Hartrees.
 IExCor= 1009 DFT=T Ex+Corr=PBE1PBE ExCW=0 ScaHFX=  0.250000
 ScaDFX=  0.750000  0.750000  1.000000  1.000000 ScalE2=  1.000000  1.000000
 IRadAn=      0 IRanWt=     -1 IRanGd=            0 ICorTp=0 IEmpDi=  4
 NAtoms=    9 NActive=    9 NUniq=    9 SFac= 1.00D+00 NAtFMM=   60 NAOKFM=F Big=F
 Integral buffers will be    131072 words long.
 Raffenetti 2 integral format.
 Two-electron integral symmetry is turned on.
 Leave Link  301 at Tue Mar  6 12:13:41 2018, MaxMem=   536870912 cpu:         0.2
 (Enter /share/apps//mg09/l302.exe)
 NPDir=0 NMtPBC=     1 NCelOv=     1 NCel=       1 NClECP=     1 NCelD=      1
         NCelK=      1 NCelE2=     1 NClLst=     1 CellRange=     0.0.
 One-electron integrals computed using PRISM.
   1 Symmetry operations used in ECPInt.
 ECPInt:  NShTT=   10440 NPrTT=   41973 LenC2=    9688 LenP2D=   27647.
 LDataN:  DoStor=T MaxTD1= 8 Len=  415
 NBasis=   444 RedAO= T EigKep=  1.34D-03  NBF=   444
 NBsUse=   444 1.00D-06 EigRej= -1.00D+00 NBFU=   444
 Precomputing XC quadrature grid using
 IXCGrd= 4 IRadAn=           0 IRanWt=          -1 IRanGd=           0 AccXCQ= 0.00D+00.
 Defaulting to unpruned grid for atomic number  50.
 Defaulting to unpruned grid for atomic number  50.
 Defaulting to unpruned grid for atomic number  83.
 Generated NRdTot=       0 NPtTot=           0 NUsed=           0 NTot=          32
 NSgBfM=   508   508   508   508   508 MxSgAt=     9 MxSgA2=     9.
 Leave Link  302 at Tue Mar  6 12:13:47 2018, MaxMem=   536870912 cpu:        26.0
 (Enter /share/apps//mg09/l303.exe)
 DipDrv:  MaxL=1.
 Leave Link  303 at Tue Mar  6 12:13:47 2018, MaxMem=   536870912 cpu:         0.2
 (Enter /share/apps//mg09/l401.exe)
 Initial guess from the checkpoint file:  "Isomer_15.chk"
 B after Tr=     0.000000    0.000000    0.000000
         Rot=    0.999978   -0.001405    0.000045   -0.006481 Ang=  -0.76 deg.
 Guess basis will be translated and rotated to current coordinates.
 JPrj=2 DoOrth=T DoCkMO=T.
 Generating alternative initial guess.
 ExpMin= 4.62D-02 ExpMax= 4.66D+05 ExpMxC= 4.50D+03 IAcc=2 IRadAn=         4 AccDes= 0.00D+00
 Harris functional with IExCor= 1009 and IRadAn=       4 diagonalized for initial guess.
 HarFok:  IExCor= 1009 AccDes= 0.00D+00 IRadAn=         4 IDoV= 1 UseB2=F ITyADJ=14
 ICtDFT=  3500011 ScaDFX=  1.000000  1.000000  1.000000  1.000000
 Defaulting to unpruned grid for atomic number  50.
 Defaulting to unpruned grid for atomic number  50.
 Defaulting to unpruned grid for atomic number  50.
 Defaulting to unpruned grid for atomic number  50.
 FoFCou: FMM=F IPFlag=           0 FMFlag=      100000 FMFlg1=           0
         NFxFlg=           0 DoJE=T BraDBF=F KetDBF=T FulRan=T
         wScrn=  0.000000 ICntrl=     500 IOpCl=  0 I1Cent=   200000004 NGrid=           0
         NMat0=    1 NMatS0=      1 NMatT0=    0 NMatD0=    1 NMtDS0=    0 NMtDT0=    0
 Petite list used in FoFCou.
 Harris En= -7518.61712935226    
 Leave Link  401 at Tue Mar  6 12:13:50 2018, MaxMem=   536870912 cpu:        11.5
 (Enter /share/apps//mg09/l502.exe)
 Closed shell SCF:
 Using DIIS extrapolation, IDIIS=  1040.
 Integral symmetry usage will be decided dynamically.
 IVT=     1410107 IEndB=     1410107 NGot=   536870912 MDV=   536322046
 LenX=   536322046 LenY=   536052166
 Requested convergence on RMS density matrix=1.00D-08 within 768 cycles.
 Requested convergence on MAX density matrix=1.00D-06.
 Requested convergence on             energy=1.00D-06.
 No special actions if energy rises.
 Fock matrices will be formed incrementally for  20 cycles.

 Cycle   1  Pass 1  IDiag  1:
 FoFJK:  IHMeth= 1 ICntrl=       0 DoSepK=F KAlg= 0 I1Cent=   0 FoldK=F
 IRaf= 880000000 NMat=   1 IRICut=       1 DoRegI=T DoRafI=F ISym2E= 0.
 FoFCou: FMM=F IPFlag=           0 FMFlag=      100000 FMFlg1=           0
         NFxFlg=           0 DoJE=F BraDBF=F KetDBF=F FulRan=T
         wScrn=  0.000000 ICntrl=       0 IOpCl=  0 I1Cent=           0 NGrid=           0
         NMat0=    1 NMatS0=      1 NMatT0=    0 NMatD0=    1 NMtDS0=    0 NMtDT0=    0
 Symmetry not used in FoFCou.
 Defaulting to unpruned grid for atomic number  50.
 Defaulting to unpruned grid for atomic number  50.
 Defaulting to unpruned grid for atomic number  50.
 Defaulting to unpruned grid for atomic number  50.
 E= -7517.82095171707    
 DIIS: error= 5.19D-03 at cycle   1 NSaved=   1.
 NSaved= 1 IEnMin= 1 EnMin= -7517.82095171707     IErMin= 1 ErrMin= 5.19D-03
 ErrMax= 5.19D-03  0.00D+00 EMaxC= 1.00D-01 BMatC= 8.74D-03 BMatP= 8.74D-03
 IDIUse=3 WtCom= 9.48D-01 WtEn= 5.19D-02
 Coeff-Com:  0.100D+01
 Coeff-En:   0.100D+01
 Coeff:      0.100D+01
 Gap=     7.756 Goal=   None    Shift=    0.000
 GapD=    7.756 DampG=2.000 DampE=1.000 DampFc=2.0000 IDamp=-1.
 RMSDP=1.75D-04 MaxDP=4.33D-03              OVMax= 2.02D-02

 Cycle   2  Pass 1  IDiag  1:
 RMSU=  1.74D-04    CP:  1.00D+00
 E= -7517.82098799654     Delta-E=       -0.000036279474 Rises=F Damp=F
 DIIS: error= 1.43D-03 at cycle   2 NSaved=   2.
 NSaved= 2 IEnMin= 2 EnMin= -7517.82098799654     IErMin= 2 ErrMin= 1.43D-03
 ErrMax= 1.43D-03  0.00D+00 EMaxC= 1.00D-01 BMatC= 1.55D-03 BMatP= 8.74D-03
 IDIUse=3 WtCom= 9.86D-01 WtEn= 1.43D-02
 Coeff-Com:  0.189D+00 0.811D+00
 Coeff-En:   0.490D+00 0.510D+00
 Coeff:      0.193D+00 0.807D+00
 Gap=     0.126 Goal=   None    Shift=    0.000
 RMSDP=2.11D-04 MaxDP=8.38D-03 DE=-3.63D-05 OVMax= 1.59D-02

 Cycle   3  Pass 1  IDiag  1:
 RMSU=  1.92D-04    CP:  9.99D-01  5.23D-01
 E= -7517.81893019064     Delta-E=        0.002057805905 Rises=F Damp=F
 DIIS: error= 2.12D-03 at cycle   3 NSaved=   3.
 NSaved= 3 IEnMin= 2 EnMin= -7517.82098799654     IErMin= 2 ErrMin= 1.43D-03
 ErrMax= 2.12D-03  0.00D+00 EMaxC= 1.00D-01 BMatC= 3.85D-03 BMatP= 1.55D-03
 IDIUse=3 WtCom= 1.79D-01 WtEn= 8.21D-01
 Coeff-Com:  0.696D-02 0.610D+00 0.383D+00
 Coeff-En:   0.000D+00 0.676D+00 0.324D+00
 Coeff:      0.124D-02 0.664D+00 0.335D+00
 Gap=     0.127 Goal=   None    Shift=    0.000
 RMSDP=1.21D-04 MaxDP=4.84D-03 DE= 2.06D-03 OVMax= 1.16D-02

 Cycle   4  Pass 1  IDiag  1:
 RMSU=  4.71D-05    CP:  9.99D-01  7.89D-01  4.78D-01
 E= -7517.82200928606     Delta-E=       -0.003079095424 Rises=F Damp=F
 DIIS: error= 4.64D-04 at cycle   4 NSaved=   4.
 NSaved= 4 IEnMin= 4 EnMin= -7517.82200928606     IErMin= 4 ErrMin= 4.64D-04
 ErrMax= 4.64D-04  0.00D+00 EMaxC= 1.00D-01 BMatC= 2.46D-04 BMatP= 1.55D-03
 IDIUse=3 WtCom= 9.95D-01 WtEn= 4.64D-03
 Coeff-Com:  0.117D-03 0.448D+00 0.236D+00 0.316D+00
 Coeff-En:   0.000D+00 0.116D+00 0.000D+00 0.884D+00
 Coeff:      0.116D-03 0.447D+00 0.235D+00 0.318D+00
 Gap=     0.127 Goal=   None    Shift=    0.000
 RMSDP=4.08D-05 MaxDP=1.41D-03 DE=-3.08D-03 OVMax= 4.29D-03

 Cycle   5  Pass 1  IDiag  1:
 RMSU=  1.40D-05    CP:  9.99D-01  8.51D-01  4.36D-01  2.43D-01
 E= -7517.82221716234     Delta-E=       -0.000207876283 Rises=F Damp=F
 DIIS: error= 9.04D-05 at cycle   5 NSaved=   5.
 NSaved= 5 IEnMin= 5 EnMin= -7517.82221716234     IErMin= 5 ErrMin= 9.04D-05
 ErrMax= 9.04D-05  0.00D+00 EMaxC= 1.00D-01 BMatC= 1.49D-05 BMatP= 2.46D-04
 IDIUse=1 WtCom= 1.00D+00 WtEn= 0.00D+00
 Coeff-Com: -0.894D-03 0.223D+00 0.106D+00 0.232D+00 0.439D+00
 Coeff:     -0.894D-03 0.223D+00 0.106D+00 0.232D+00 0.439D+00
 Gap=     0.127 Goal=   None    Shift=    0.000
 RMSDP=9.81D-06 MaxDP=4.45D-04 DE=-2.08D-04 OVMax= 1.11D-03

 Cycle   6  Pass 1  IDiag  1:
 RMSU=  4.04D-06    CP:  9.99D-01  8.60D-01  4.29D-01  3.79D-01  6.02D-01
 E= -7517.82223236956     Delta-E=       -0.000015207217 Rises=F Damp=F
 DIIS: error= 1.73D-05 at cycle   6 NSaved=   6.
 NSaved= 6 IEnMin= 6 EnMin= -7517.82223236956     IErMin= 6 ErrMin= 1.73D-05
 ErrMax= 1.73D-05  0.00D+00 EMaxC= 1.00D-01 BMatC= 5.12D-07 BMatP= 1.49D-05
 IDIUse=1 WtCom= 1.00D+00 WtEn= 0.00D+00
 Coeff-Com: -0.477D-03 0.935D-01 0.445D-01 0.106D+00 0.239D+00 0.517D+00
 Coeff:     -0.477D-03 0.935D-01 0.445D-01 0.106D+00 0.239D+00 0.517D+00
 Gap=     0.127 Goal=   None    Shift=    0.000
 RMSDP=3.33D-06 MaxDP=1.41D-04 DE=-1.52D-05 OVMax= 3.57D-04

 Cycle   7  Pass 1  IDiag  1:
 RMSU=  2.72D-06    CP:  9.99D-01  8.63D-01  4.30D-01  3.83D-01  6.68D-01
                    CP:  6.27D-01
 E= -7517.82223242611     Delta-E=       -0.000000056552 Rises=F Damp=F
 DIIS: error= 1.62D-05 at cycle   7 NSaved=   7.
 NSaved= 7 IEnMin= 7 EnMin= -7517.82223242611     IErMin= 7 ErrMin= 1.62D-05
 ErrMax= 1.62D-05  0.00D+00 EMaxC= 1.00D-01 BMatC= 4.23D-07 BMatP= 5.12D-07
 IDIUse=1 WtCom= 1.00D+00 WtEn= 0.00D+00
 Coeff-Com: -0.152D-03 0.139D-01 0.726D-02 0.240D-01 0.789D-01 0.464D+00
 Coeff-Com:  0.412D+00
 Coeff:     -0.152D-03 0.139D-01 0.726D-02 0.240D-01 0.789D-01 0.464D+00
 Coeff:      0.412D+00
 Gap=     0.127 Goal=   None    Shift=    0.000
 RMSDP=2.10D-06 MaxDP=7.17D-05 DE=-5.66D-08 OVMax= 2.30D-04

 Cycle   8  Pass 1  IDiag  1:
 RMSU=  9.12D-07    CP:  9.99D-01  8.64D-01  4.33D-01  3.80D-01  6.79D-01
                    CP:  9.16D-01  4.90D-01
 E= -7517.82223292975     Delta-E=       -0.000000503635 Rises=F Damp=F
 DIIS: error= 4.55D-06 at cycle   8 NSaved=   8.
 NSaved= 8 IEnMin= 8 EnMin= -7517.82223292975     IErMin= 8 ErrMin= 4.55D-06
 ErrMax= 4.55D-06  0.00D+00 EMaxC= 1.00D-01 BMatC= 5.08D-08 BMatP= 4.23D-07
 IDIUse=1 WtCom= 1.00D+00 WtEn= 0.00D+00
 Coeff-Com:  0.126D-05-0.130D-01-0.538D-02-0.738D-02 0.157D-04 0.226D+00
 Coeff-Com:  0.302D+00 0.498D+00
 Coeff:      0.126D-05-0.130D-01-0.538D-02-0.738D-02 0.157D-04 0.226D+00
 Coeff:      0.302D+00 0.498D+00
 Gap=     0.127 Goal=   None    Shift=    0.000
 RMSDP=6.60D-07 MaxDP=4.88D-05 DE=-5.04D-07 OVMax= 7.40D-05

 Cycle   9  Pass 1  IDiag  1:
 RMSU=  2.70D-07    CP:  9.99D-01  8.65D-01  4.34D-01  3.83D-01  6.87D-01
                    CP:  9.38D-01  6.14D-01  5.56D-01
 E= -7517.82223298178     Delta-E=       -0.000000052029 Rises=F Damp=F
 DIIS: error= 1.15D-06 at cycle   9 NSaved=   9.
 NSaved= 9 IEnMin= 9 EnMin= -7517.82223298178     IErMin= 9 ErrMin= 1.15D-06
 ErrMax= 1.15D-06  0.00D+00 EMaxC= 1.00D-01 BMatC= 3.39D-09 BMatP= 5.08D-08
 IDIUse=1 WtCom= 1.00D+00 WtEn= 0.00D+00
 Coeff-Com:  0.182D-04-0.915D-02-0.384D-02-0.670D-02-0.948D-02 0.810D-01
 Coeff-Com:  0.134D+00 0.291D+00 0.523D+00
 Coeff:      0.182D-04-0.915D-02-0.384D-02-0.670D-02-0.948D-02 0.810D-01
 Coeff:      0.134D+00 0.291D+00 0.523D+00
 Gap=     0.127 Goal=   None    Shift=    0.000
 RMSDP=1.88D-07 MaxDP=1.18D-05 DE=-5.20D-08 OVMax= 2.96D-05

 Cycle  10  Pass 1  IDiag  1:
 RMSU=  1.26D-07    CP:  9.99D-01  8.65D-01  4.34D-01  3.84D-01  6.92D-01
                    CP:  9.44D-01  6.17D-01  6.26D-01  7.46D-01
 E= -7517.82223298447     Delta-E=       -0.000000002698 Rises=F Damp=F
 DIIS: error= 7.31D-07 at cycle  10 NSaved=  10.
 NSaved=10 IEnMin=10 EnMin= -7517.82223298447     IErMin=10 ErrMin= 7.31D-07
 ErrMax= 7.31D-07  0.00D+00 EMaxC= 1.00D-01 BMatC= 5.07D-10 BMatP= 3.39D-09
 IDIUse=1 WtCom= 1.00D+00 WtEn= 0.00D+00
 Coeff-Com:  0.115D-04-0.518D-02-0.216D-02-0.387D-02-0.640D-02 0.396D-01
 Coeff-Com:  0.697D-01 0.159D+00 0.350D+00 0.400D+00
 Coeff:      0.115D-04-0.518D-02-0.216D-02-0.387D-02-0.640D-02 0.396D-01
 Coeff:      0.697D-01 0.159D+00 0.350D+00 0.400D+00
 Gap=     0.127 Goal=   None    Shift=    0.000
 RMSDP=9.49D-08 MaxDP=3.37D-06 DE=-2.70D-09 OVMax= 1.14D-05

 Cycle  11  Pass 1  IDiag  1:
 RMSU=  6.72D-08    CP:  9.99D-01  8.65D-01  4.34D-01  3.84D-01  6.93D-01
                    CP:  9.45D-01  6.18D-01  6.35D-01  8.49D-01  5.38D-01
 E= -7517.82223298518     Delta-E=       -0.000000000711 Rises=F Damp=F
 DIIS: error= 4.25D-07 at cycle  11 NSaved=  11.
 NSaved=11 IEnMin=11 EnMin= -7517.82223298518     IErMin=11 ErrMin= 4.25D-07
 ErrMax= 4.25D-07  0.00D+00 EMaxC= 1.00D-01 BMatC= 2.02D-10 BMatP= 5.07D-10
 IDIUse=1 WtCom= 1.00D+00 WtEn= 0.00D+00
 Coeff-Com:  0.112D-05 0.356D-04 0.451D-04-0.105D-04-0.121D-02-0.698D-02
 Coeff-Com: -0.696D-02-0.532D-02 0.622D-01 0.395D+00 0.563D+00
 Coeff:      0.112D-05 0.356D-04 0.451D-04-0.105D-04-0.121D-02-0.698D-02
 Coeff:     -0.696D-02-0.532D-02 0.622D-01 0.395D+00 0.563D+00
 Gap=     0.127 Goal=   None    Shift=    0.000
 RMSDP=4.85D-08 MaxDP=2.17D-06 DE=-7.11D-10 OVMax= 7.16D-06

 Cycle  12  Pass 1  IDiag  1:
 RMSU=  1.65D-08    CP:  9.99D-01  8.65D-01  4.34D-01  3.84D-01  6.93D-01
                    CP:  9.49D-01  6.23D-01  6.35D-01  8.75D-01  7.98D-01
                    CP:  7.19D-01
 E= -7517.82223298515     Delta-E=        0.000000000031 Rises=F Damp=F
 DIIS: error= 5.49D-08 at cycle  12 NSaved=  12.
 NSaved=12 IEnMin=11 EnMin= -7517.82223298518     IErMin=12 ErrMin= 5.49D-08
 ErrMax= 5.49D-08  0.00D+00 EMaxC= 1.00D-01 BMatC= 5.83D-12 BMatP= 2.02D-10
 IDIUse=1 WtCom= 1.00D+00 WtEn= 0.00D+00
 Coeff-Com: -0.541D-06 0.488D-03 0.220D-03 0.343D-03 0.171D-04-0.660D-02
 Coeff-Com: -0.101D-01-0.167D-01-0.139D-02 0.163D+00 0.261D+00 0.609D+00
 Coeff:     -0.541D-06 0.488D-03 0.220D-03 0.343D-03 0.171D-04-0.660D-02
 Coeff:     -0.101D-01-0.167D-01-0.139D-02 0.163D+00 0.261D+00 0.609D+00
 Gap=     0.127 Goal=   None    Shift=    0.000
 RMSDP=9.99D-09 MaxDP=3.71D-07 DE= 3.09D-11 OVMax= 1.83D-06

 SCF Done:  E(RPBE1PBE) =  -7517.82223299     A.U. after   12 cycles
            NFock= 12  Conv=0.10D-07     -V/T= 2.1284
 KE= 6.662174631033D+03 PE=-2.475778442176D+04 EE= 6.994596991721D+03
 Leave Link  502 at Tue Mar  6 12:22:39 2018, MaxMem=   536870912 cpu:      2113.4
 (Enter /share/apps//mg09/l701.exe)
 Compute integral first derivatives.
 ... and contract with generalized density number  0.
   1 Symmetry operations used in ECPInt.
 ECPInt:  NShTT=   10440 NPrTT=   41973 LenC2=    9688 LenP2D=   27647.
 LDataN:  DoStor=T MaxTD1= 9 Len=  602
 Leave Link  701 at Tue Mar  6 12:22:56 2018, MaxMem=   536870912 cpu:        66.0
 (Enter /share/apps//mg09/l702.exe)
 L702 exits ... SP integral derivatives will be done elsewhere.
 Leave Link  702 at Tue Mar  6 12:22:56 2018, MaxMem=   536870912 cpu:         0.1
 (Enter /share/apps//mg09/l703.exe)
 Compute integral first derivatives, UseDBF=F ICtDFT=           0.
 Integral derivatives from FoFJK, PRISM(SPDF).
 Calling FoFJK, ICntrl=      2127 FMM=F ISym2X=0 I1Cent= 0 IOpClX= 0 NMat=1 NMatS=1 NMatT=0.
 FoFJK:  IHMeth= 1 ICntrl=    2127 DoSepK=F KAlg= 0 I1Cent=   0 FoldK=F
 IRaf=         0 NMat=   1 IRICut=       1 DoRegI=T DoRafI=F ISym2E= 0.
 FoFCou: FMM=F IPFlag=           0 FMFlag=      100000 FMFlg1=         800
         NFxFlg=           0 DoJE=F BraDBF=F KetDBF=F FulRan=T
         wScrn=  0.000000 ICntrl=    2127 IOpCl=  0 I1Cent=           0 NGrid=           0
         NMat0=    1 NMatS0=      1 NMatT0=    0 NMatD0=    1 NMtDS0=    0 NMtDT0=    0
 Symmetry not used in FoFCou.
 Defaulting to unpruned grid for atomic number  50.
 Defaulting to unpruned grid for atomic number  50.
 Defaulting to unpruned grid for atomic number  50.
 Defaulting to unpruned grid for atomic number  50.
 Leave Link  703 at Tue Mar  6 12:26:14 2018, MaxMem=   536870912 cpu:       790.3
 (Enter /share/apps//mg09/l716.exe)
 Dipole        =-1.77781363D-01 3.80783081D-01-1.80315297D-01
 ***** Axes restored to original set *****
 -------------------------------------------------------------------
 Center     Atomic                   Forces (Hartrees/Bohr)
 Number     Number              X              Y              Z
 -------------------------------------------------------------------
      1       50          -0.007008388   -0.001840421   -0.002173908
      2       32           0.003882012   -0.005008124   -0.004480636
      3       32           0.001715249    0.006322207   -0.004513944
      4       50           0.000766593   -0.005664939    0.003052647
      5       83           0.002745474    0.001300481    0.000714943
      6       32           0.000853452    0.002022067    0.005821213
      7       83          -0.002187145    0.000477860   -0.000407526
      8       83           0.000054693    0.001592339   -0.000198521
      9       83          -0.000821939    0.000798528    0.002185731
 -------------------------------------------------------------------
 Cartesian Forces:  Max     0.007008388 RMS     0.003249126
 Leave Link  716 at Tue Mar  6 12:26:14 2018, MaxMem=   536870912 cpu:         0.1
 (Enter /share/apps//mg09/l103.exe)

 GradGradGradGradGradGradGradGradGradGradGradGradGradGradGradGradGradGrad
 Berny optimization.
 Search for a local minimum.
 Step number   2 out of a maximum of  100
 All quantities printed in internal units (Hartrees-Bohrs-Radians)
 Update second derivatives using D2CorN and points    1    2
 DE= -5.79D-03 DEPred=-4.24D-03 R= 1.36D+00
 TightC=F SS=  1.41D+00  RLast= 2.22D-01 DXNew= 5.0454D-01 6.6740D-01
 Trust test= 1.36D+00 RLast= 2.22D-01 DXMaxT set to 5.05D-01
 ITU=  1  0
     Eigenvalues ---    0.08013   0.09626   0.11836   0.12273   0.12801
     Eigenvalues ---    0.13911   0.14412   0.14583   0.15873   0.16208
     Eigenvalues ---    0.17192   0.22110   0.22916   0.23403   0.24341
     Eigenvalues ---    0.24697   0.26201   0.28301   0.28982   0.30644
     Eigenvalues ---    0.31511
 RFO step:  Lambda=-4.31330074D-04 EMin= 8.01349106D-02
 Quartic linear search produced a step of  0.61528.
 TrRot=  0.000009  0.000312 -0.000117 -0.000014  0.000062 -0.000014
 MatCor failed.
 Variable       Old X    -DE/DX   Delta X   Delta X   Delta X     New X
                                 (Linear)    (Quad)   (Total)
    X1        2.95560  -0.00701  -0.04218  -0.01137  -0.05328   2.90232
    Y1        2.58942  -0.00184  -0.01820   0.00145  -0.01651   2.57291
    Z1        3.03647  -0.00217  -0.02512  -0.00151  -0.02693   3.00955
    X2       -2.23042   0.00388   0.02736   0.00422   0.03191  -2.19851
    Y2        3.20166  -0.00501  -0.03344  -0.00753  -0.04060   3.16106
    Z2        3.88195  -0.00448  -0.03718  -0.00546  -0.04261   3.83933
    X3       -1.14384   0.00172   0.00944   0.00247   0.01213  -1.13172
    Y3       -1.71600   0.00632   0.03347   0.01128   0.04509  -1.67092
    Z3        4.11034  -0.00451  -0.03184  -0.00554  -0.03743   4.07292
    X4       -0.85215   0.00077   0.00509   0.00103   0.00619  -0.84596
    Y4        4.79528  -0.00566  -0.04598  -0.00344  -0.04909   4.74619
    Z4       -1.24791   0.00305   0.02210   0.00550   0.02753  -1.22037
    X5       -4.67179   0.00275   0.03634  -0.00896   0.02740  -4.64438
    Y5        0.53306   0.00130   0.00298   0.00341   0.00683   0.53990
    Z5       -0.02432   0.00071   0.00291   0.00063   0.00371  -0.02062
    X6       -1.40599   0.00085   0.00916  -0.00589   0.00301  -1.40298
    Y6        0.07577   0.00202   0.01017   0.01197   0.02249   0.09826
    Z6       -4.44345   0.00582   0.04348   0.00636   0.04981  -4.39363
    X7        3.50768  -0.00219  -0.03156   0.00761  -0.02407   3.48361
    Y7        1.42378   0.00048  -0.01119   0.00325  -0.00772   1.41606
    Z7       -2.61400  -0.00041   0.02170  -0.01489   0.00647  -2.60752
    X8       -1.63862   0.00005   0.01264  -0.00462   0.00786  -1.63076
    Y8       -4.14746   0.00159   0.03589  -0.01193   0.02431  -4.12315
    Z8       -1.00457  -0.00020   0.00687  -0.00608   0.00078  -1.00379
    X9        3.35664  -0.00082  -0.02630   0.01513  -0.01115   3.34549
    Y9       -2.82871   0.00080   0.02629  -0.01132   0.01519  -2.81351
    Z9        1.22467   0.00219  -0.00292   0.02190   0.01866   1.24333
         Item               Value     Threshold  Converged?
 Maximum Force            0.007008     0.000450     NO 
 RMS     Force            0.003249     0.000300     NO 
 Maximum Displacement     0.053282     0.001800     NO 
 RMS     Displacement     0.027857     0.001200     NO 
 Predicted change in Energy=-1.282888D-03
 Lowest energy point so far.  Saving SCF results.
 GradGradGradGradGradGradGradGradGradGradGradGradGradGradGradGradGradGrad

 Leave Link  103 at Tue Mar  6 12:26:14 2018, MaxMem=   536870912 cpu:         0.1
 (Enter /share/apps//mg09/l202.exe)
                          Input orientation:                          
 ---------------------------------------------------------------------
 Center     Atomic      Atomic             Coordinates (Angstroms)
 Number     Number       Type             X           Y           Z
 ---------------------------------------------------------------------
      1         50           0        1.535841    1.361527    1.592583
      2         32           0       -1.163400    1.672763    2.031686
      3         32           0       -0.598879   -0.884211    2.155295
      4         50           0       -0.447662    2.511574   -0.645795
[...]
     X              X       X  X          XX  X                                                                                      
     X              X       X  X          X   X                                                                                      
     X              X       X             X   X                                                                                      
     X              X       X             X   X                                                                                      
     X              X       X                 X                                                                                      
     X              X       X                 X                                                                                      
     X              X       X                 X                                                                                      
     X              X       X                 X                                                                                      
     X              X       X                 X                                                                                      
                    X       X                 X                                                                                      
                    X       X                 X                                                                                      
                    X       X                 X                                                                                      
                    X       X                 X                                                                                      
                    X       X                                                                                                        
                    X                                                                                                                
 
 ***** Axes restored to original set *****
 -------------------------------------------------------------------
 Center     Atomic                   Forces (Hartrees/Bohr)
 Number     Number              X              Y              Z
 -------------------------------------------------------------------
      1       50          -0.000049325   -0.000021151   -0.000003584
      2       32          -0.000128741    0.000050719   -0.000030740
      3       32           0.000100406    0.000065841    0.000042360
      4       50           0.000083640   -0.000041191    0.000037171
      5       83          -0.000002693   -0.000091823    0.000046082
      6       32          -0.000072218    0.000058842   -0.000042394
      7       83          -0.000013088   -0.000022561    0.000000270
      8       83           0.000037014    0.000046367   -0.000075500
      9       83           0.000045006   -0.000045042    0.000026337
 -------------------------------------------------------------------
 Cartesian Forces:  Max     0.000128741 RMS     0.000056094
 Force constants in Cartesian coordinates: 
                1             2             3             4             5 
      1  0.637626D-01
      2 -0.149191D-02  0.473491D-01
      3  0.424192D-02  0.159800D-01  0.502390D-01
      4 -0.390844D-01  0.759778D-02  0.841675D-02  0.640911D-01
      5  0.356850D-02  0.255388D-03 -0.283094D-02 -0.609231D-02  0.594958D-01
      6  0.462099D-02 -0.175354D-02 -0.223347D-02 -0.226199D-02  0.169493D-01
      7 -0.385068D-02 -0.835610D-02  0.247364D-02 -0.419849D-02  0.984055D-02
      8 -0.672967D-02 -0.553508D-02  0.283045D-02  0.700593D-02 -0.363426D-01
      9 -0.137469D-04  0.539075D-03 -0.401569D-02  0.149698D-02 -0.328831D-03
     10 -0.559331D-02  0.478629D-02 -0.986127D-02 -0.209235D-02 -0.653711D-03
     11  0.312694D-02 -0.389826D-02  0.258665D-02  0.246565D-03 -0.417604D-02
     12 -0.891489D-02  0.521134D-02 -0.756716D-02  0.594999D-02  0.719099D-02
     13 -0.489939D-02  0.910964D-04 -0.130673D-02 -0.145147D-01 -0.866153D-02
     14 -0.344444D-02 -0.548943D-02  0.458938D-03 -0.105145D-01 -0.103998D-01
     15 -0.430213D-02  0.226833D-03 -0.291533D-02 -0.157148D-01 -0.162683D-01
     16 -0.603240D-03  0.139755D-02 -0.608994D-02  0.913185D-03 -0.231499D-03
     17  0.637323D-04 -0.302797D-02 -0.333526D-02 -0.903710D-03 -0.182579D-02
     18 -0.242654D-03  0.459247D-03 -0.257520D-02 -0.143012D-02  0.427911D-03
     19 -0.450102D-02 -0.794504D-03  0.323260D-02 -0.236528D-02 -0.107079D-03
     20  0.659568D-04  0.116329D-02 -0.643081D-02  0.281947D-02 -0.682937D-03
     21  0.403573D-02 -0.646585D-02 -0.280841D-01  0.135848D-02  0.815750D-03
     22 -0.205712D-02 -0.770552D-02 -0.482369D-03  0.560713D-03  0.264274D-02
     23 -0.562713D-03  0.320136D-03  0.394699D-03 -0.157162D-02 -0.301936D-02
     24 -0.429332D-04 -0.458846D-02 -0.308934D-02 -0.301223D-03 -0.385977D-02
     25 -0.317353D-02  0.447532D-02 -0.624596D-03 -0.330986D-02 -0.305660D-03
     26  0.540360D-02 -0.311372D-01 -0.965368D-02  0.141237D-02 -0.330464D-02
     27  0.617725D-03 -0.960860D-02  0.241282D-03  0.248591D-02 -0.209609D-02
                6             7             8             9            10 
      6  0.604217D-01
      7 -0.410180D-03  0.403995D-01
      8  0.311767D-02 -0.878202D-02  0.583882D-01
      9 -0.305744D-02 -0.116870D-01 -0.730342D-02  0.561471D-01
     10  0.769458D-02 -0.461795D-02 -0.200339D-02 -0.242946D-04  0.461210D-01
     11  0.481651D-02  0.314905D-03 -0.441195D-02  0.469672D-03 -0.649083D-02
     12 -0.216233D-01 -0.136753D-02  0.514390D-02 -0.357897D-02 -0.797469D-02
     13 -0.134816D-01 -0.789449D-02  0.414847D-02 -0.449871D-02 -0.144282D-01
     14 -0.171828D-01  0.608270D-02  0.486143D-03  0.730534D-02 -0.138964D-01
     15 -0.229307D-01 -0.448371D-02  0.432473D-02 -0.895806D-02  0.617517D-02
     16  0.252550D-02 -0.224038D-02  0.857913D-03  0.325728D-02  0.296154D-02
     17 -0.261392D-02  0.229095D-02  0.230829D-02  0.565889D-02 -0.250047D-02
     18 -0.372206D-02 -0.184255D-02 -0.979315D-03 -0.659096D-02 -0.283785D-02
     19  0.237707D-03  0.141931D-02 -0.173958D-02 -0.158969D-02 -0.221219D-01
     20 -0.176768D-02 -0.687714D-02 -0.118208D-02  0.175538D-02  0.174775D-01
     21 -0.279042D-02  0.640686D-02 -0.132639D-04 -0.571977D-02  0.990148D-02
     22  0.193570D-02  0.279009D-02 -0.170495D-03 -0.593661D-04 -0.192322D-02
     23 -0.143818D-02 -0.200255D-02 -0.838728D-02 -0.701686D-02 -0.127413D-02
     24 -0.181873D-02 -0.268851D-02 -0.444250D-02 -0.158201D-01  0.199078D-02
     25 -0.860727D-03 -0.218069D-01  0.741283D-02  0.131186D-01  0.169444D-02
     26 -0.127306D-03  0.748871D-02 -0.532361D-02 -0.107925D-02  0.455515D-02
     27 -0.224560D-02  0.135990D-01 -0.267826D-02 -0.840611D-02 -0.506390D-02
               11            12            13            14            15 
     11  0.651626D-01
     12 -0.864439D-02  0.438494D-01
     13 -0.122017D-01  0.479455D-02  0.845198D-01
     14 -0.165540D-01  0.392861D-02 -0.246887D-02  0.636315D-01
     15  0.449356D-02  0.132729D-02  0.861174D-03  0.149783D-01  0.538898D-01
     16 -0.178178D-02 -0.143111D-02 -0.162269D-01 -0.165211D-02  0.141273D-01
     17 -0.123565D-01 -0.717016D-02 -0.165806D-02  0.184029D-02 -0.325677D-02
     18 -0.550014D-02 -0.849747D-02  0.117144D-01 -0.146350D-02 -0.214521D-01
     19  0.161621D-01  0.937415D-02 -0.452326D-02 -0.954959D-03  0.320085D-02
     20 -0.128757D-01 -0.479332D-02  0.166651D-02 -0.218200D-02  0.137612D-02
     21 -0.247621D-02 -0.393677D-02 -0.958573D-04  0.230682D-03  0.131557D-02
     22  0.247503D-02  0.584575D-03 -0.167828D-01  0.208886D-01  0.467493D-03
     23 -0.533972D-02 -0.631936D-03  0.205070D-01 -0.338847D-01 -0.691376D-02
     24  0.357579D-02  0.979101D-03  0.146053D-02 -0.109829D-01  0.565686D-03
     25 -0.185127D-02 -0.101505D-02 -0.524997D-02  0.595995D-02 -0.331332D-03
     26 -0.555040D-02 -0.235026D-03 -0.142293D-02  0.255196D-02  0.103924D-02
     27  0.678563D-03 -0.952203D-03  0.552251D-03  0.272730D-02 -0.842098D-03
               16            17            18            19            20 
     16  0.520893D-01
     17  0.106776D-01  0.412541D-01
     18  0.183798D-02 -0.220985D-02  0.708543D-01
     19 -0.340637D-01 -0.891122D-02 -0.744828D-02  0.718920D-01
     20 -0.649910D-02 -0.266062D-02 -0.396627D-02 -0.482910D-02  0.456497D-01
     21 -0.105069D-01 -0.557529D-02 -0.894866D-02 -0.124206D-01 -0.747392D-02
     22 -0.861783D-03  0.391962D-03 -0.333142D-03 -0.333069D-02 -0.581350D-02
     23 -0.250631D-02 -0.251005D-01  0.133062D-01  0.232451D-03 -0.334063D-02
     24  0.146855D-02  0.141822D-01 -0.162896D-01  0.771660D-03  0.404683D-02
     25 -0.196800D-02  0.549172D-03  0.582253D-03 -0.240540D-02  0.198944D-02
     26 -0.262300D-03 -0.431294D-03 -0.742980D-04  0.941892D-03 -0.238890D-01
     27 -0.518860D-02  0.432016D-02 -0.277815D-02  0.464157D-02  0.172537D-01
               21            22            23            24            25 
     21  0.668098D-01
     22 -0.128625D-02  0.641817D-01
     23  0.548950D-03 -0.333771D-02  0.854842D-01
     24 -0.539326D-03  0.164324D-01  0.961673D-02  0.433394D-01
     25  0.260706D-02 -0.425769D-01 -0.948438D-02 -0.190912D-01  0.787961D-01
     26  0.204091D-01 -0.937110D-02 -0.673214D-02 -0.754794D-02 -0.874539D-02
     27 -0.181063D-01 -0.172590D-01 -0.786585D-02 -0.732706D-02  0.561502D-02
               26            27 
     26  0.738163D-01
     27 -0.273089D-02  0.404163D-01
 Leave Link  716 at Tue Mar  6 14:29:02 2018, MaxMem=   536870912 cpu:         0.1
 (Enter /share/apps//mg09/l103.exe)

 GradGradGradGradGradGradGradGradGradGradGradGradGradGradGradGradGradGrad
 Berny optimization.
 Search for a local minimum.
 Step number   1 out of a maximum of    2
 All quantities printed in internal units (Hartrees-Bohrs-Radians)
 Second derivative matrix not updated -- analytic derivatives used.
 ITU=  0
     Eigenvalues ---    0.01272   0.02111   0.02848   0.03657   0.04301
     Eigenvalues ---    0.04600   0.05008   0.05455   0.05779   0.06156
     Eigenvalues ---    0.06628   0.07564   0.08211   0.08949   0.09927
     Eigenvalues ---    0.10790   0.11772   0.12676   0.12795   0.14080
     Eigenvalues ---    0.14379
 Angle between quadratic step and forces=  26.15 degrees.
 Linear search not attempted -- first point.
 TrRot= -0.000089  0.000164 -0.000029  0.000001  0.000017  0.000001
 Variable       Old X    -DE/DX   Delta X   Delta X   Delta X     New X
                                 (Linear)    (Quad)   (Total)
    X1        2.87771  -0.00005   0.00000  -0.00137  -0.00141   2.87629
    Y1        2.56879  -0.00002   0.00000  -0.00104  -0.00087   2.56792
    Z1        2.99762   0.00000   0.00000   0.00032   0.00024   2.99786
    X2       -2.21059  -0.00013   0.00000  -0.00258  -0.00261  -2.21321
    Y2        3.16093   0.00005   0.00000   0.00196   0.00212   3.16305
    Z2        3.83638  -0.00003   0.00000  -0.00153  -0.00152   3.83486
    X3       -1.10898   0.00010   0.00000   0.00196   0.00194  -1.10704
    Y3       -1.63854   0.00007   0.00000   0.00244   0.00261  -1.63593
    Z3        4.05180   0.00004   0.00000   0.00133   0.00132   4.05312
    X4       -0.82501   0.00008   0.00000   0.00317   0.00305  -0.82196
    Y4        4.73456  -0.00004   0.00000  -0.00088  -0.00072   4.73385
    Z4       -1.20752   0.00004   0.00000   0.00074   0.00072  -1.20680
    X5       -4.67435   0.00000   0.00000  -0.00030  -0.00039  -4.67474
    Y5        0.52596  -0.00009   0.00000  -0.00370  -0.00354   0.52241
    Z5       -0.01552   0.00005   0.00000   0.00201   0.00206  -0.01345
    X6       -1.41208  -0.00007   0.00000  -0.00342  -0.00358  -1.41566
    Y6        0.12526   0.00006   0.00000   0.00355   0.00371   0.12896
    Z6       -4.36820  -0.00004   0.00000  -0.00095  -0.00096  -4.36915
    X7        3.49513  -0.00001   0.00000  -0.00082  -0.00096   3.49417
    Y7        1.40351  -0.00002   0.00000  -0.00345  -0.00328   1.40023
    Z7       -2.62597   0.00000   0.00000  -0.00023  -0.00032  -2.62629
    X8       -1.62321   0.00004   0.00000   0.00303   0.00294  -1.62027
    Y8       -4.12389   0.00005   0.00000   0.00144   0.00160  -4.12230
    Z8       -1.01734  -0.00008   0.00000  -0.00382  -0.00383  -1.02117
    X9        3.35850   0.00005   0.00000   0.00109   0.00103   3.35953
    Y9       -2.82977  -0.00005   0.00000  -0.00179  -0.00162  -2.83140
    Z9        1.26793   0.00003   0.00000   0.00236   0.00227   1.27021
         Item               Value     Threshold  Converged?
 Maximum Force            0.000129     0.000450     YES
 RMS     Force            0.000056     0.000300     YES
 Maximum Displacement     0.003827     0.001800     NO 
 RMS     Displacement     0.002194     0.001200     NO 
 Predicted change in Energy=-1.494386D-06
 GradGradGradGradGradGradGradGradGradGradGradGradGradGradGradGradGradGrad

 Leave Link  103 at Tue Mar  6 14:29:02 2018, MaxMem=   536870912 cpu:         0.1
 (Enter /share/apps//mg09/l9999.exe)
 1\1\GINC-COMPUTE-0-5\Freq\RPBE1PBE\def2TZVP\Bi4Ge3Sn2\RODRIGO\06-Mar-2
 018\0\\#P Geom=AllCheck Guess=TCheck SCRF=Check GenChk RPBE1PBE/def2TZ
 VP Freq\\01Final_coords.xyz_15\\0,1\Sn,1.5228169385,1.3593429224,1.586
 273514\Ge,-1.1697963296,1.6726926632,2.0301243616\Ge,-0.5868464224,-0.
 8670768378,2.1441186127\Sn,-0.436574555,2.5054236415,-0.6389945769\Bi,
 -2.4735620375,0.2783242069,-0.0082115954\Ge,-0.7472396591,0.0662826505
 ,-2.3115507289\Bi,1.8495422854,0.7427060004,-1.3896047832\Bi,-0.858966
 3896,-2.1822699792,-0.5383538864\Bi,1.7772421698,-1.497452268,0.670962
 0825\\Version=ES64L-G09RevD.01\State=1-A\HF=-7517.8238657\RMSD=6.271e-
 09\RMSF=5.609e-05\ZeroPoint=0.0058653\Thermal=0.0232935\Dipole=0.17048
 4,-0.4231213,-0.1963301\DipoleDeriv=0.1419923,0.13832,0.1632401,0.1077
 086,0.0514565,0.0721457,0.1000399,0.0456055,0.1337757,-0.1287529,-0.08
 61348,-0.1561697,-0.0988808,-0.1130773,0.1793496,-0.1053008,0.1048811,
 -0.0177824,-0.0075668,0.0109303,-0.0190061,0.0106529,0.0006046,-0.0484
 705,0.0281695,-0.0262085,0.0039638,0.0409911,-0.0446359,0.0289012,-0.0
 256662,0.3158021,-0.1259172,0.0117204,-0.0959125,0.0243829,0.1396506,0
 .0018298,0.0283997,-0.0209954,-0.0204448,-0.0327974,-0.0306453,-0.0106
 491,0.0052166,-0.0926094,-0.013087,0.099131,-0.0437005,-0.1307427,-0.0
 318842,0.0649771,0.0355244,0.0584766,-0.0484685,0.0398034,-0.1694622,0
 .0611733,-0.0448235,-0.0373998,-0.0538926,-0.0070299,-0.1270644,-0.021
 5822,0.0837935,-0.0227879,0.0417795,-0.008251,0.0557333,-0.0556716,-0.
 0114831,-0.0938214,-0.0236541,-0.1308192,0.0477539,-0.0320714,-0.05052
 39,-0.0307595,0.0406035,-0.0347279,0.0128526\Polar=378.1195367,-0.4034
 56,385.1909838,4.0355013,4.0439691,364.7380889\PG=C01 [X(Bi4Ge3Sn2)]\N
 Imag=0\\0.06376265,-0.00149191,0.04734908,0.00424192,0.01597995,0.0502
 3896,-0.03908436,0.00759778,0.00841675,0.06409114,0.00356850,0.0002553
 9,-0.00283094,-0.00609231,0.05949577,0.00462099,-0.00175354,-0.0022334
 7,-0.00226199,0.01694928,0.06042170,-0.00385068,-0.00835610,0.00247364
 ,-0.00419849,0.00984055,-0.00041018,0.04039947,-0.00672967,-0.00553508
 ,0.00283045,0.00700593,-0.03634262,0.00311767,-0.00878202,0.05838818,-
 0.00001375,0.00053908,-0.00401569,0.00149698,-0.00032883,-0.00305744,-
 0.01168703,-0.00730342,0.05614712,-0.00559331,0.00478629,-0.00986127,-
 0.00209235,-0.00065371,0.00769458,-0.00461795,-0.00200339,-0.00002429,
 0.04612100,0.00312694,-0.00389826,0.00258665,0.00024657,-0.00417604,0.
 00481651,0.00031490,-0.00441195,0.00046967,-0.00649083,0.06516255,-0.0
 0891489,0.00521134,-0.00756716,0.00594999,0.00719099,-0.02162325,-0.00
 136753,0.00514390,-0.00357897,-0.00797469,-0.00864439,0.04384944,-0.00
 489939,0.00009110,-0.00130673,-0.01451469,-0.00866153,-0.01348157,-0.0
 0789449,0.00414847,-0.00449871,-0.01442823,-0.01220165,0.00479455,0.08
 451978,-0.00344444,-0.00548943,0.00045894,-0.01051447,-0.01039977,-0.0
 1718282,0.00608270,0.00048614,0.00730534,-0.01389639,-0.01655399,0.003
 92861,-0.00246887,0.06363154,-0.00430213,0.00022683,-0.00291533,-0.015
 71478,-0.01626829,-0.02293073,-0.00448371,0.00432473,-0.00895806,0.006
 17517,0.00449356,0.00132729,0.00086117,0.01497833,0.05388982,-0.000603
 24,0.00139755,-0.00608994,0.00091318,-0.00023150,0.00252550,-0.0022403
 8,0.00085791,0.00325728,0.00296154,-0.00178178,-0.00143111,-0.01622690
 ,-0.00165211,0.01412726,0.05208932,0.00006373,-0.00302797,-0.00333526,
 -0.00090371,-0.00182579,-0.00261392,0.00229095,0.00230829,0.00565889,-
 0.00250047,-0.01235647,-0.00717016,-0.00165806,0.00184029,-0.00325677,
 0.01067764,0.04125407,-0.00024265,0.00045925,-0.00257520,-0.00143012,0
 .00042791,-0.00372206,-0.00184255,-0.00097932,-0.00659096,-0.00283785,
 -0.00550014,-0.00849747,0.01171437,-0.00146350,-0.02145215,0.00183798,
 -0.00220985,0.07085427,-0.00450102,-0.00079450,0.00323260,-0.00236528,
 -0.00010708,0.00023771,0.00141931,-0.00173958,-0.00158969,-0.02212191,
 0.01616210,0.00937415,-0.00452326,-0.00095496,0.00320085,-0.03406373,-
 0.00891122,-0.00744828,0.07189199,0.00006596,0.00116329,-0.00643081,0.
 00281947,-0.00068294,-0.00176768,-0.00687714,-0.00118208,0.00175538,0.
 01747747,-0.01287572,-0.00479332,0.00166651,-0.00218200,0.00137612,-0.
 00649910,-0.00266062,-0.00396627,-0.00482910,0.04564974,0.00403573,-0.
 00646585,-0.02808407,0.00135848,0.00081575,-0.00279042,0.00640686,-0.0
 0001326,-0.00571977,0.00990148,-0.00247621,-0.00393677,-0.00009586,0.0
 0023068,0.00131557,-0.01050691,-0.00557529,-0.00894866,-0.01242058,-0.
 00747392,0.06680979,-0.00205712,-0.00770552,-0.00048237,0.00056071,0.0
 0264274,0.00193570,0.00279009,-0.00017049,-0.00005937,-0.00192322,0.00
 247503,0.00058458,-0.01678284,0.02088859,0.00046749,-0.00086178,0.0003
 9196,-0.00033314,-0.00333069,-0.00581350,-0.00128625,0.06418174,-0.000
 56271,0.00032014,0.00039470,-0.00157162,-0.00301936,-0.00143818,-0.002
 00255,-0.00838728,-0.00701686,-0.00127413,-0.00533972,-0.00063194,0.02
 050696,-0.03388475,-0.00691376,-0.00250631,-0.02510050,0.01330621,0.00
 023245,-0.00334063,0.00054895,-0.00333771,0.08548425,-0.00004293,-0.00
 458846,-0.00308934,-0.00030122,-0.00385977,-0.00181873,-0.00268851,-0.
 00444250,-0.01582013,0.00199078,0.00357579,0.00097910,0.00146053,-0.01
 098288,0.00056569,0.00146855,0.01418220,-0.01628962,0.00077166,0.00404
 683,-0.00053933,0.01643237,0.00961673,0.04333942,-0.00317353,0.0044753
 2,-0.00062460,-0.00330986,-0.00030566,-0.00086073,-0.02180687,0.007412
 83,0.01311858,0.00169444,-0.00185127,-0.00101505,-0.00524997,0.0059599
 5,-0.00033133,-0.00196800,0.00054917,0.00058225,-0.00240540,0.00198944
 ,0.00260706,-0.04257690,-0.00948438,-0.01909121,0.07879610,0.00540360,
 -0.03113716,-0.00965368,0.00141237,-0.00330464,-0.00012731,0.00748871,
 -0.00532361,-0.00107925,0.00455515,-0.00555040,-0.00023503,-0.00142293
 ,0.00255196,0.00103924,-0.00026230,-0.00043129,-0.00007430,0.00094189,
 -0.02388903,0.02040915,-0.00937110,-0.00673214,-0.00754794,-0.00874539
 ,0.07381631,0.00061773,-0.00960860,0.00024128,0.00248591,-0.00209609,-
 0.00224560,0.01359902,-0.00267826,-0.00840611,-0.00506390,0.00067856,-
 0.00095220,0.00055225,0.00272730,-0.00084210,-0.00518860,0.00432016,-0
 .00277815,0.00464157,0.01725368,-0.01810634,-0.01725901,-0.00786585,-0
 .00732706,0.00561502,-0.00273089,0.04041628\\0.00004932,0.00002115,0.0
 0000358,0.00012874,-0.00005072,0.00003074,-0.00010041,-0.00006584,-0.0
 0004236,-0.00008364,0.00004119,-0.00003717,0.00000269,0.00009182,-0.00
 004608,0.00007222,-0.00005884,0.00004239,0.00001309,0.00002256,-0.0000
 0027,-0.00003701,-0.00004637,0.00007550,-0.00004501,0.00004504,-0.0000
 2634\\\@


 "THE TIME HAS COME", THE WALRUS SAID,
 "TO TALK OF MANY THINGS,
 OF SHOES AND SHIPS AND SEALING WAX,
 OF CABBAGES AND KINGS,
 AND WHY THE SEA IS BOILING HOT,
 AND WHETHER PIGS HAVE WINGS."
 Job cpu time:       0 days  3 hours 43 minutes 50.5 seconds.
 File lengths (MBytes):  RWF=    299 Int=      0 D2E=      0 Chk=     16 Scr=      1
 Normal termination of Gaussian 09 at Tue Mar  6 14:29:04 2018.
